#     Step Nr.          Time[fs]        Kin.[a.u.]          Temp[K]            Pot.[a.u.]        Cons Qty[a.u.]        UsedTime[s]
         0            0.000000         0.275037913       300.000000000     -1103.011438494     -1102.736400582         0.000000000
         1            0.500000         0.278350304       303.613019889     -1103.015775733     -1102.736489174       224.993566751
         2            1.000000         0.269801355       294.288178736     -1103.024034948     -1102.736700118        20.304656561
         3            1.500000         0.278765190       304.065560205     -1103.035486924     -1102.736997770        20.360801198
         4            2.000000         0.276113918       301.173662342     -1103.043153755     -1102.737153650        20.726877894
         5            2.500000         0.292429472       318.969995453     -1103.049022493     -1102.737239109        24.134379692
         6            3.000000         0.317744783       346.582891379     -1103.050937711     -1102.737229804        25.343161494
         7            3.500000         0.312884489       341.281482814     -1103.047991784     -1102.737082497        24.356983434
         8            4.000000         0.303119796       330.630559095     -1103.042041491     -1102.736875062        24.528083991
         9            4.500000         0.299274632       326.436413178     -1103.036225171     -1102.736724538        18.728595536
        10            5.000000         0.291976726       318.476158116     -1103.032621078     -1102.736637239        26.222168550
        11            5.500000         0.310746595       338.949556627     -1103.035595282     -1102.736699540        21.829617403
        12            6.000000         0.309105366       337.159371216     -1103.039097652     -1102.736797359        20.400057342
        13            6.500000         0.301163442       328.496648529     -1103.043867304     -1102.736878662        34.597116537
        14            7.000000         0.297874436       324.909136445     -1103.047471805     -1102.736945950       320.088321239
        15            7.500000         0.309340177       337.415494128     -1103.048649629     -1102.736994668        33.458501440
        16            8.000000         0.314930834       343.513551894     -1103.051607864     -1102.737045337        34.717825908
        17            8.500000         0.300823271       328.125603986     -1103.051611383     -1102.737064143        35.988995433
        18            9.000000         0.290150014       316.483656102     -1103.051097663     -1102.737060911        34.414058741
        19            9.500000         0.285877866       311.823773834     -1103.047709641     -1102.736955162        20.021729298
        20           10.000000         0.288065502       314.209956883     -1103.045827266     -1102.736869365        32.163811266
        21           10.500000         0.299436460       326.612928270     -1103.046314270     -1102.736840244        40.494782221
        22           11.000000         0.290991089       317.401066736     -1103.047916793     -1102.736796124        22.424814377
        23           11.500000         0.296702661       323.631012623     -1103.051433556     -1102.736852375        28.274657425
        24           12.000000         0.293616441       320.264691412     -1103.055850467     -1102.736904076        25.218632981
        25           12.500000         0.279365658       304.720525541     -1103.058289898     -1102.736910928        17.525676064
        26           13.000000         0.275353810       300.344567908     -1103.059416767     -1102.736904236        17.928606041
        27           13.500000         0.288038315       314.180302000     -1103.060020542     -1102.736873306        13.730304811
        28           14.000000         0.273635671       298.470492715     -1103.062418467     -1102.736858450        14.614297945
        29           14.500000         0.274448481       299.357072626     -1103.067561668     -1102.736908530        13.368706595
        30           15.000000         0.284635793       310.468971550     -1103.070765086     -1102.736929833        16.536449894
        31           15.500000         0.297000630       323.956025097     -1103.072366088     -1102.736914918        14.289733022
        32           16.000000         0.294389242       321.107631751     -1103.074095233     -1102.736902895        13.079037972
        33           16.500000         0.282149853       307.757411513     -1103.075754015     -1102.736897785        13.428142536
        34           17.000000         0.298138354       325.197007660     -1103.079531180     -1102.736929830        15.215097908
        35           17.500000         0.293326427       319.948356061     -1103.082903418     -1102.736940668        14.103932533
        36           18.000000         0.295357845       322.164142880     -1103.087511472     -1102.736992614        12.490595151
        37           18.500000         0.311612105       339.893619147     -1103.090280278     -1102.736968044        11.647734523
        38           19.000000         0.292510707       319.058602880     -1103.091343530     -1102.736881940        11.015052997
        39           19.500000         0.305221528       332.923041409     -1103.095446883     -1102.736789138        10.361082841
        40           20.000000         0.305159493       332.855376343     -1103.106578034     -1102.736937779        12.693959985
        41           20.500000         0.335394687       365.834677381     -1103.120993467     -1102.737294436         9.211677279
        42           21.000000         0.342635044       373.732159920     -1103.130865641     -1102.737733095        10.171499632
        43           21.500000         0.336768727       367.333423808     -1103.130783775     -1102.738111870        10.189379476
        44           22.000000         0.307202485       335.083788049     -1103.119696263     -1102.737923351        10.066819340
        45           22.500000         0.297934024       324.974133370     -1103.104773362     -1102.736917017        10.352436215
        46           23.000000         0.285830420       311.772022024     -1103.098129130     -1102.736250484        10.187133275
        47           23.500000         0.291714725       318.190378381     -1103.113840728     -1102.737200429        10.461644541
        48           24.000000         0.317034581       345.808231779     -1103.135860992     -1102.738109455        10.657948066
        49           24.500000         0.323995091       353.400468760     -1103.151128282     -1102.738396131         9.372200172
        50           25.000000         0.330644047       360.652876197     -1103.159197125     -1102.738408923        11.763280138
        51           25.500000         0.316464698       345.186627088     -1103.160322539     -1102.738251422         9.424442917
        52           26.000000         0.303330308       330.860176475     -1103.160161619     -1102.738160661         9.562916830
        53           26.500000         0.307925966       335.872930447     -1103.157253949     -1102.738103016         9.236291986
        54           27.000000         0.307316453       335.208098980     -1103.156299728     -1102.738106322         9.749065563
        55           27.500000         0.288347487       314.517534518     -1103.154979367     -1102.738064844         9.401642788
        56           28.000000         0.267871940       292.183653054     -1103.154389818     -1102.738031758         9.382768631
        57           28.500000         0.280874650       306.366472691     -1103.154202862     -1102.738057300         9.466638252
        58           29.000000         0.282096405       307.699112330     -1103.149824758     -1102.737986634         9.780525900
        59           29.500000         0.285647155       311.572123653     -1103.145986337     -1102.737915504         9.335881945
        60           30.000000         0.286082032       312.046469941     -1103.144062489     -1102.737866658        11.999793801
        61           30.500000         0.294450580       321.174536600     -1103.146248440     -1102.737928434         9.361469675
        62           31.000000         0.300963901       328.278997924     -1103.145802774     -1102.737912741         9.442983419
        63           31.500000         0.306690768       334.525628317     -1103.145029287     -1102.737878601         9.313805141
        64           32.000000         0.308014866       335.969899685     -1103.144527870     -1102.737834313         9.417412918
        65           32.500000         0.311714365       340.005160370     -1103.143562369     -1102.737784821         9.331264585
        66           33.000000         0.317215517       346.005590100     -1103.140082382     -1102.737626278         9.885892425
        67           33.500000         0.326631834       356.276519453     -1103.141817560     -1102.737574450         9.406097084
        68           34.000000         0.334534531       364.896454615     -1103.146645987     -1102.737665700         9.314240500
        69           34.500000         0.342338135       373.408303661     -1103.153579078     -1102.737824198         9.424740050
        70           35.000000         0.360152218       392.839170615     -1103.158968721     -1102.737953702        12.298715424
        71           35.500000         0.354652278       386.840063393     -1103.160233729     -1102.738006913         9.123754576
        72           36.000000         0.346265953       377.692605942     -1103.160197407     -1102.737992975         9.206379253
        73           36.500000         0.331684075       361.787295061     -1103.156399826     -1102.737837590         9.391544297
        74           37.000000         0.304966057       332.644383871     -1103.153326178     -1102.737702986         9.176259067
        75           37.500000         0.318253647       347.137938793     -1103.155228266     -1102.737807048         9.425331347
        76           38.000000         0.308183708       336.154065527     -1103.157133525     -1102.737844793         9.496339761
        77           38.500000         0.296529074       323.441671637     -1103.159987838     -1102.737841190         9.513778288
        78           39.000000         0.300363109       327.623678587     -1103.161582175     -1102.737792402         9.491168123
        79           39.500000         0.304486790       332.121620207     -1103.164200387     -1102.737787307         9.425163973
        80           40.000000         0.293623136       320.271994647     -1103.167812388     -1102.737843463        12.662299879
        81           40.500000         0.311493764       339.764537596     -1103.172940946     -1102.737997012         9.370790295
        82           41.000000         0.303913810       331.496637193     -1103.176428833     -1102.738101036         9.365138561
        83           41.500000         0.313581850       342.042135731     -1103.177755039     -1102.738149765         9.360224191
        84           42.000000         0.319684997       348.699196583     -1103.176993967     -1102.738139055         9.436307918
        85           42.500000         0.312616301       340.988954773     -1103.171237249     -1102.738018320         9.948439293
        86           43.000000         0.304165809       331.771506692     -1103.168007557     -1102.737925713         9.520899802
        87           43.500000         0.292901599       319.484971749     -1103.168224902     -1102.737958429         9.344297014
        88           44.000000         0.307566174       335.480484473     -1103.170465203     -1102.738046287         9.289423365
        89           44.500000         0.312111070       340.437869919     -1103.171774954     -1102.738098723         9.453260094
        90           45.000000         0.313657526       342.124679879     -1103.171878833     -1102.738074754        12.496291757
        91           45.500000         0.315969834       344.646849521     -1103.172021535     -1102.738017110         9.331143439
        92           46.000000         0.317413141       346.221149959     -1103.170391601     -1102.737911824         9.651698962
        93           46.500000         0.289378486       315.642105733     -1103.168132902     -1102.737803307         9.156846624
        94           47.000000         0.281331188       306.864444509     -1103.168362532     -1102.737762849         9.522750482
        95           47.500000         0.304840874       332.507840090     -1103.173830173     -1102.737857877         9.629843935
        96           48.000000         0.305689944       333.433970551     -1103.179666228     -1102.737941234         9.487737972
        97           48.500000         0.309489373       337.578230188     -1103.183771418     -1102.737967620         9.419249274
        98           49.000000         0.304477260       332.111225254     -1103.185195446     -1102.737964191         9.526848767
        99           49.500000         0.311173736       339.415464772     -1103.183389103     -1102.737903121         9.691860668
       100           50.000000         0.268773910       293.167484317     -1103.181266056     -1102.737869693        12.627380699
       101           50.500000         0.278670851       303.962659458     -1103.181548359     -1102.737830917         9.215795062
       102           51.000000         0.290509605       316.875882876     -1103.181877354     -1102.737786259         9.286962498
       103           51.500000         0.291413107       317.861386267     -1103.181008646     -1102.737708789         8.340865631
       104           52.000000         0.283698324       309.446419584     -1103.181946126     -1102.737730765         9.186329935
       105           52.500000         0.290180765       316.517198499     -1103.184180595     -1102.737818502         9.229858894
       106           53.000000         0.293844501       320.513450513     -1103.188423272     -1102.737948730         9.281313848
       107           53.500000         0.302104416       329.523024370     -1103.192452752     -1102.738057323         8.485180359
       108           54.000000         0.299346038       326.514299893     -1103.195987805     -1102.738164153         8.484474696
       109           54.500000         0.305626788       333.365082701     -1103.197715108     -1102.738218180         9.451574985
       110           55.000000         0.297367306       324.355980497     -1103.194454511     -1102.738153280        12.556373663
       111           55.500000         0.295009581       321.784271120     -1103.189008230     -1102.738030672         8.360696275
       112           56.000000         0.301293619       328.638640847     -1103.183000472     -1102.737899358         8.274417404
       113           56.500000         0.287924091       314.055711208     -1103.178126827     -1102.737808306         8.505490322
       114           57.000000         0.292443883       318.985714115     -1103.176994261     -1102.737807745         9.443893120
       115           57.500000         0.298761561       325.876776610     -1103.177618682     -1102.737832696         9.309015520
       116           58.000000         0.297089546       324.053010810     -1103.178671802     -1102.737884344         9.263971925
       117           58.500000         0.281741954       307.312491637     -1103.182579132     -1102.738005248         9.357165746
       118           59.000000         0.296659541       323.583979381     -1103.186258994     -1102.738094077         8.282755453
       119           59.500000         0.304912255       332.585699312     -1103.186223307     -1102.738116099         8.486962505
       120           60.000000         0.298838819       325.961046357     -1103.183585190     -1102.738042859        11.605281379
       121           60.500000         0.279736998       305.125568062     -1103.181472531     -1102.737988327         8.606245399
       122           61.000000         0.287212914       313.279988619     -1103.181475425     -1102.738001938         8.446472742
       123           61.500000         0.286718099       312.740265504     -1103.183350640     -1102.738052572         8.453874592
       124           62.000000         0.292766177       319.337259427     -1103.182889175     -1102.738054239         8.497946072
       125           62.500000         0.296023208       322.889894415     -1103.183228834     -1102.738042471         8.307894967
       126           63.000000         0.299108750       326.255476009     -1103.183044920     -1102.737957654         8.530293062
       127           63.500000         0.313588151       342.049008592     -1103.184697483     -1102.737952352         8.561049145
       128           64.000000         0.311283101       339.534754987     -1103.183828165     -1102.737942694         8.424853165
       129           64.500000         0.314093149       342.599839835     -1103.184923884     -1102.737980972         8.458407480
       130           65.000000         0.324694534       354.163392581     -1103.186201995     -1102.738052021        11.349625651
       131           65.500000         0.300364999       327.625739742     -1103.185540970     -1102.738055383         8.473375838
       132           66.000000         0.296593337       323.511766536     -1103.182795876     -1102.738040015         8.425256781
       133           66.500000         0.299570497       326.759130165     -1103.175707987     -1102.737915454         8.495205302
       134           67.000000         0.289132928       315.374260592     -1103.168802453     -1102.737795886         8.525604755
       135           67.500000         0.286486163       312.487278748     -1103.162527331     -1102.737671807         8.762734771
       136           68.000000         0.286000524       311.957563995     -1103.157770542     -1102.737569011         8.601020478
       137           68.500000         0.288123275       314.272973039     -1103.155901271     -1102.737531160         8.622395262
       138           69.000000         0.275285241       300.269775545     -1103.156047673     -1102.737584568         8.570788864
       139           69.500000         0.269667458       294.142129996     -1103.158896298     -1102.737707588         8.400352873
       140           70.000000         0.291656198       318.126539505     -1103.163776224     -1102.737909743        11.651687853
       141           70.500000         0.286714142       312.735949533     -1103.166364401     -1102.738061806         8.409019381
       142           71.000000         0.291978579       318.478179725     -1103.163194447     -1102.738101386         9.296081040
       143           71.500000         0.266266108       290.432078270     -1103.155161587     -1102.737986536         8.652497083
       144           72.000000         0.263871153       287.819760196     -1103.147294289     -1102.737766016         8.618818019
       145           72.500000         0.265518577       289.616701979     -1103.139252307     -1102.737499008         8.496977076
       146           73.000000         0.253912353       276.957111313     -1103.138240730     -1102.737468692         9.494614407
       147           73.500000         0.259355873       282.894679046     -1103.142241203     -1102.737639153         8.452135652
       148           74.000000         0.269038039       293.455585964     -1103.148339678     -1102.737851828         8.495589260
       149           74.500000         0.282735922       308.396671093     -1103.153533482     -1102.737997842         8.266517226
       150           75.000000         0.285142358       311.021511790     -1103.157623705     -1102.738087730        12.472383190
       151           75.500000         0.297084942       324.047989434     -1103.160267165     -1102.738122022         8.402244996
       152           76.000000         0.284179054       309.970779499     -1103.158128937     -1102.737999610         9.284787782
       153           76.500000         0.274714793       299.647554920     -1103.153909627     -1102.737806239         9.295767430
       154           77.000000         0.271374783       296.004409790     -1103.150686363     -1102.737647288         8.488625478
       155           77.500000         0.262285229       286.089899107     -1103.154009432     -1102.737674132         8.576742683
       156           78.000000         0.267786697       292.090673030     -1103.158534250     -1102.737737392         9.435313594
       157           78.500000         0.267973159       292.294058092     -1103.167884329     -1102.737908201         9.298176471
       158           79.000000         0.289547269       315.826207299     -1103.175990279     -1102.738076244         9.450423796
       159           79.500000         0.293977449       320.658464828     -1103.178564497     -1102.738087760         8.518176630
       160           80.000000         0.290637523       317.015411314     -1103.174685738     -1102.737981775        13.545342918
       161           80.500000         0.276904387       302.035873105     -1103.170030006     -1102.737849988         9.292433761
       162           81.000000         0.267834202       292.142490396     -1103.163284095     -1102.737687934         9.498133089
       163           81.500000         0.283725218       309.475754189     -1103.159961390     -1102.737618623         9.336222365
       164           82.000000         0.278781389       304.083229784     -1103.158848695     -1102.737596148         9.475003995
       165           82.500000         0.291880438       318.371131438     -1103.158535677     -1102.737592423         9.406265214
       166           83.000000         0.290020106       316.341958265     -1103.161306212     -1102.737636849         9.440016694
       167           83.500000         0.284052019       309.832215077     -1103.162683180     -1102.737635465         9.745227516
       168           84.000000         0.296481191       323.389442379     -1103.164510377     -1102.737678579         9.529412348
       169           84.500000         0.282200731       307.812907030     -1103.164663439     -1102.737696633         9.536940902
       170           85.000000         0.292566046       319.118963865     -1103.162992093     -1102.737652539        12.343280394
       171           85.500000         0.268888232       293.292182647     -1103.160480013     -1102.737555407         9.459541939
       172           86.000000         0.265118703       289.180535826     -1103.160632814     -1102.737500756         9.591088966
       173           86.500000         0.279487019       304.852901837     -1103.164686411     -1102.737542043         9.441242117
       174           87.000000         0.285299311       311.192710079     -1103.169748035     -1102.737582887         9.786362842
       175           87.500000         0.274102265       298.979433886     -1103.175426076     -1102.737656794         9.862349696
       176           88.000000         0.272193033       296.896922722     -1103.181791088     -1102.737720944         9.580152653
       177           88.500000         0.290512726       316.879287755     -1103.188882431     -1102.737787115         8.710572876
       178           89.000000         0.292511459       319.059423445     -1103.192719715     -1102.737744093         8.644928619
       179           89.500000         0.299772398       326.979355423     -1103.196066537     -1102.737690748         8.429759458
       180           90.000000         0.308220178       336.193844838     -1103.199603720     -1102.737687316        11.639119763
       181           90.500000         0.322306923       351.559085192     -1103.204221520     -1102.737815601         9.312485497
       182           91.000000         0.309037629       337.085487094     -1103.209260020     -1102.737963464         9.484937992
       183           91.500000         0.309116347       337.171349744     -1103.209988055     -1102.737965399         8.635236967
       184           92.000000         0.297630552       324.643118766     -1103.208993719     -1102.737914767         9.412455045
       185           92.500000         0.293403373       320.032286322     -1103.206925407     -1102.737875190         9.240445033
       186           93.000000         0.297470230       324.468245570     -1103.203854803     -1102.737815890         9.434378270
       187           93.500000         0.287191856       313.257019272     -1103.200680964     -1102.737767112         9.459267452
       188           94.000000         0.287388360       313.471358414     -1103.197774012     -1102.737693089         8.818597469
       189           94.500000         0.279239539       304.582960609     -1103.196971807     -1102.737715424         9.268857840
       190           95.000000         0.270148492       294.666822397     -1103.195016187     -1102.737719797        11.878560912
       191           95.500000         0.277980151       303.209272641     -1103.195468816     -1102.737771727         8.588415656
       192           96.000000         0.260025565       283.625151432     -1103.198772966     -1102.737853282         8.525387347
       193           96.500000         0.285429287       311.334482486     -1103.196415345     -1102.737760860         8.480201684
       194           97.000000         0.278951037       304.268274689     -1103.194314453     -1102.737695357         9.380133659
       195           97.500000         0.274468679       299.379103416     -1103.192095525     -1102.737622633         8.945385102
       196           98.000000         0.270919831       295.508166933     -1103.190033044     -1102.737595813         8.557446908
       197           98.500000         0.272905469       297.674018670     -1103.190998207     -1102.737654816         9.477814853
       198           99.000000         0.267216124       291.468315525     -1103.192120759     -1102.737679699         8.511215620
       199           99.500000         0.273528025       298.353077397     -1103.192233102     -1102.737660269         9.864181239
       200          100.000000         0.281271803       306.799670485     -1103.190284090     -1102.737594636        12.224760253
       201          100.500000         0.273874809       298.731334948     -1103.187191615     -1102.737526838         9.401912898
       202          101.000000         0.271287567       295.909278011     -1103.187246082     -1102.737542227         9.319065370
       203          101.500000         0.282428841       308.061719526     -1103.186346525     -1102.737507801         9.092788115
       204          102.000000         0.285100339       310.975679687     -1103.188602092     -1102.737511216         9.435651451
       205          102.500000         0.284945069       310.806317678     -1103.191795242     -1102.737537439         9.116723787
       206          103.000000         0.287613191       313.716594543     -1103.196692326     -1102.737639883         9.311386768
       207          103.500000         0.282165012       307.773946246     -1103.202294493     -1102.737788964         9.411986325
       208          104.000000         0.286888764       312.926419106     -1103.204640793     -1102.737885571         9.219934814
       209          104.500000         0.295978576       322.841210767     -1103.204793210     -1102.737892429         8.376255546
       210          105.000000         0.288935873       315.159321440     -1103.202141454     -1102.737832710        11.597087134
       211          105.500000         0.276813495       301.936732270     -1103.198518379     -1102.737685807         8.451376136
       212          106.000000         0.266118292       290.270846472     -1103.196383461     -1102.737542282         8.822137851
       213          106.500000         0.273826013       298.678109698     -1103.198502692     -1102.737522056         8.429860286
       214          107.000000         0.294543987       321.276420921     -1103.203655215     -1102.737625920         8.633765761
       215          107.500000         0.297553478       324.559048904     -1103.211106167     -1102.737835760         8.637865301
       216          108.000000         0.306553198       334.375571963     -1103.219415151     -1102.738055102         8.307492152
       217          108.500000         0.321609326       350.798175541     -1103.223905027     -1102.738126802         9.304920051
       218          109.000000         0.301449141       328.808277486     -1103.223324316     -1102.738065193         9.197345987
       219          109.500000         0.297126771       324.093615147     -1103.220326435     -1102.737967870         9.359556176
       220          110.000000         0.305199259       332.898751990     -1103.218711202     -1102.737896731        11.828829162
       221          110.500000         0.299955773       327.179373903     -1103.219601450     -1102.737876582         9.366611175
       222          111.000000         0.291242547       317.675346195     -1103.221806185     -1102.737853448         8.316626899
       223          111.500000         0.289912441       316.224521807     -1103.224372853     -1102.737854208         9.235241145
       224          112.000000         0.284231044       310.027488303     -1103.226426467     -1102.737908967         8.502283514
       225          112.500000         0.287704124       313.815780038     -1103.231666362     -1102.738049798         8.475049175
       226          113.000000         0.298845039       325.967830728     -1103.234434725     -1102.738088592         8.296320904
       227          113.500000         0.300353386       327.613073421     -1103.236170932     -1102.738036760         8.194000524