LAMMPS (15 Sep 2022)
OMP_NUM_THREADS environment is not set. Defaulting to 1 thread. (src/comm.cpp:98)
  using 1 OpenMP thread(s) per MPI task
ERROR: Expected floating point parameter instead of '{0.6' in input script or data file (src/lattice.cpp:85)
Last command: lattice         sq ${density}
--------------------------------------------------------------------------
Primary job  terminated normally, but 1 process returned
a non-zero exit code. Per user-direction, the job has been aborted.
--------------------------------------------------------------------------
--------------------------------------------------------------------------
mpirun detected that one or more processes exited with non-zero status, thus causing
the job to be terminated. The first process to do so was:

  Process name: [[51617,1],0]
  Exit code:    1
--------------------------------------------------------------------------
LAMMPS (15 Sep 2022)
OMP_NUM_THREADS environment is not set. Defaulting to 1 thread. (src/comm.cpp:98)
  using 1 OpenMP thread(s) per MPI task
Lattice spacing in x,y,z = 1.1952286 1.1952286 1.1952286
Created orthogonal box = (0 0 -0.5976143) to (23.904572 23.904572 0.5976143)
  1 by 1 by 1 MPI processor grid
Created 400 atoms
  using lattice units in orthogonal box = (0 0 -0.5976143) to (23.904572 23.904572 0.5976143)
  create_atoms CPU = 0.000 seconds
Generated 0 of 0 mixed pair_coeff terms from geometric mixing rule
Neighbor list info ...
  update: every = 1 steps, delay = 0 steps, check = yes
  max neighbors/atom: 2000, page size: 100000
  master list distance cutoff = 1.3
  ghost atom cutoff = 1.3
  binsize = 0.65, bins = 37 37 2
  1 neighbor lists, perpetual/occasional/extra = 1 0 0
  (1) pair lj/cut, perpetual
      attributes: half, newton on
      pair build: half/bin/atomonly/newton
      stencil: half/bin/2d
      bin: standard
Setting up Verlet run ...
  Unit style    : lj
  Current step  : 0
  Time step     : 0.01
Per MPI rank memory allocation (min/avg/max) = 3.057 | 3.057 | 3.057 Mbytes
   Step          Temp          E_pair         E_mol          TotEng         Press     
         0   3              0              0              2.9925         2.09475      
       500   2.8822073      0.32964339     0              3.2046452      6.7475472    
      1000   2.9406975      0.42880767     0              3.3621535      7.6835108    
      1500   2.914027       0.48149576     0              3.3882377      8.2860812    
      2000   2.9374219      0.48601031     0              3.4160887      8.5160688    
      2500   3.1716262      0.35950916     0              3.5232063      7.331062     
      3000   2.9999359      0.54031495     0              3.532751       8.9214345    
      3500   3.285565       0.41497349     0              3.6923246      8.0050596    
      4000   3.2410965      0.4357008      0              3.6686945      7.9480721    
      4500   2.9450988      0.43870846     0              3.3764445      8.0271006    
      5000   2.9332199      0.46320197     0              3.3890888      8.1870493    
      5500   2.916338       0.33063911     0              3.2396862      6.8819717    
      6000   2.6765626      0.37909857     0              3.0489698      7.2260011    
      6500   2.7527646      0.39629983     0              3.1421826      7.5075124    
      7000   2.9146906      0.39032618     0              3.2977301      7.2936813    
      7500   2.9589241      0.45300744     0              3.4045342      8.0176698    
      8000   2.8916879      0.41638594     0              3.3008446      7.8881467    
      8500   2.8894252      0.47989392     0              3.3620956      8.0008538    
      9000   2.8904032      0.52898792     0              3.4121651      8.7493322    
      9500   3.0371094      0.49457374     0              3.5240904      8.6484978    
     10000   3.0082459      0.51693198     0              3.5176573      8.9112638    
     10500   3.0364092      0.48692599     0              3.5157442      8.5067057    
     11000   3.1750169      0.47200642     0              3.6390858      8.5529228    
     11500   3.1981973      0.50293812     0              3.6931399      8.6471665    
     12000   3.2043747      0.55964185     0              3.7560056      9.2737191    
     12500   3.1080766      0.41392392     0              3.5142303      7.9641635    
     13000   3.0063965      0.50686126     0              3.5057418      8.7385131    
     13500   3.0132734      0.39193809     0              3.3976783      7.4383558    
     14000   3.0433067      0.3614762      0              3.3971746      7.1859571    
     14500   2.7502855      0.41858245     0              3.1619922      7.4824947    
     15000   2.8121503      0.51565617     0              3.3207761      8.8961707    
     15500   2.9374479      0.49087428     0              3.4209785      8.3897583    
     16000   3.1658605      0.27033787     0              3.4282837      6.2367712    
     16500   3.0595503      0.46770128     0              3.5196027      8.3958179    
     17000   3.01033        0.45011757     0              3.4529217      7.9910644    
     17500   3.1068942      0.41781491     0              3.5169418      7.917727     
     18000   3.0567342      0.46267625     0              3.5117687      8.4343426    
     18500   3.1983809      0.30531676     0              3.4957017      6.6113272    
     19000   3.3109304      0.40071184     0              3.7033649      7.7111894    
     19500   3.2277005      0.45915622     0              3.6787874      8.2980512    
     20000   3.1523821      0.60853501     0              3.7530361      9.5965901    
     20500   3.0922415      0.43564043     0              3.5201513      7.9641415    
     21000   2.8445999      0.51031018     0              3.3477985      8.6179451    
     21500   2.7635049      0.48379254     0              3.2403887      8.2291719    
     22000   2.9124028      0.31718953     0              3.2223113      6.6933057    
     22500   2.8383515      0.26915359     0              3.1004092      6.0783682    
     23000   2.6951906      0.50657922     0              3.1950318      8.4695146    
     23500   3.0604078      0.29575234     0              3.3485091      6.3147017    
     24000   3.0180825      0.36306705     0              3.3736044      7.3148721    
     24500   2.8092332      0.40840751     0              3.2106176      7.7113368    
     25000   2.9598958      0.42404143     0              3.3765375      8.0858936    
     25500   3.0046261      0.41660876     0              3.4137233      7.8601697    
     26000   2.9264433      0.62960848     0              3.5487357      9.9555275    
     26500   3.09093        0.44592938     0              3.5291321      8.414415     
     27000   3.0537723      0.56007783     0              3.6062157      9.181365     
     27500   3.1982951      0.45698452     0              3.6472839      8.1669529    
     28000   3.1474522      0.42449215     0              3.5640758      8.2254113    
     28500   3.1284583      0.53456568     0              3.6552028      9.0655661    
     29000   3.0907898      0.49927378     0              3.5823366      8.2275541    
     29500   3.218616       0.47346239     0              3.6840318      8.3402971    
     30000   3.1017604      0.50424548     0              3.5982515      8.6148285    
     30500   3.0215552      0.50907444     0              3.5230758      8.8912625    
     31000   3.1661138      0.42844014     0              3.5866386      7.9477791    
     31500   2.8667015      0.48437912     0              3.3439139      8.6923236    
     32000   3.0610493      0.3553371      0              3.4087338      7.2575904    
     32500   2.946367       0.45552468     0              3.3945258      7.9486693    
     33000   3.0627179      0.38823478     0              3.4432959      7.7100004    
     33500   2.907046       0.45900458     0              3.3587829      8.1592162    
     34000   2.6949831      0.40745741     0              3.0957031      7.5352658    
     34500   2.7673741      0.46764704     0              3.2281027      8.3515452    
     35000   2.9017731      0.41665418     0              3.3111728      7.8345669    
     35500   2.8745155      0.43773768     0              3.3050669      8.2075294    
     36000   2.9015801      0.41815217     0              3.3124783      7.6341391    
     36500   2.9013156      0.4250719      0              3.3191342      8.016285     
     37000   3.2315556      0.42726163     0              3.6507384      8.1066513    
     37500   3.1152405      0.46517809     0              3.5726305      8.4742909    
     38000   3.1658142      0.41798205     0              3.5758817      7.8239802    
     38500   2.9740584      0.5556413      0              3.5222646      8.9786975    
     39000   2.9082616      0.55310262     0              3.4540935      9.1439075    
     39500   2.7208551      0.46995729     0              3.1840103      7.9863554    
     40000   2.7307224      0.45194706     0              3.1758427      7.9470182    
     40500   2.8511978      0.43574167     0              3.2798114      7.9873705    
     41000   2.927873       0.45423296     0              3.3747863      8.1085085    
     41500   3.0170657      0.48136049     0              3.4908835      8.2752908    
     42000   3.1242122      0.4621536      0              3.5785553      8.2227765    
     42500   3.2036629      0.49563522     0              3.6912889      8.5620183    
     43000   3.2125408      0.3586799      0              3.5631893      7.1190345    
     43500   3.0115324      0.3977543      0              3.4017579      7.6583778    
     44000   2.9895897      0.44511492     0              3.4272306      8.4725728    
     44500   2.9963768      0.31974952     0              3.3086354      6.6751968    
     45000   2.8584117      0.50737224     0              3.3586379      9.0311544    
     45500   2.9565326      0.34672554     0              3.2958668      7.0069935    
     46000   2.8827073      0.37206008     0              3.2475606      7.2383735    
     46500   2.6820771      0.4564722      0              3.1318441      7.8981155    
     47000   2.8166695      0.50262952     0              3.3122574      8.4734154    
     47500   3.0178539      0.37349071     0              3.3838         7.109991     
     48000   3.021378       0.44405286     0              3.4578774      8.2392168    
     48500   2.9047736      0.56987467     0              3.4673863      9.3376278    
     49000   3.1786939      0.44056065     0              3.6113078      7.8850415    
     49500   3.0849296      0.38586819     0              3.4630855      7.7350363    
     50000   3.0654219      0.51432933     0              3.5720877      8.9496481    
Loop time of 1.57995 on 1 procs for 50000 steps with 400 atoms

Performance: 27342576.093 tau/day, 31646.500 timesteps/s, 12.659 Matom-step/s
99.2% CPU use with 1 MPI tasks x 1 OpenMP threads

MPI task timing breakdown:
Section |  min time  |  avg time  |  max time  |%varavg| %total
---------------------------------------------------------------
Pair    | 0.36285    | 0.36285    | 0.36285    |   0.0 | 22.97
Neigh   | 0.7701     | 0.7701     | 0.7701     |   0.0 | 48.74
Comm    | 0.087702   | 0.087702   | 0.087702   |   0.0 |  5.55
Output  | 0.0020719  | 0.0020719  | 0.0020719  |   0.0 |  0.13
Modify  | 0.25981    | 0.25981    | 0.25981    |   0.0 | 16.44
Other   |            | 0.09742    |            |       |  6.17

Nlocal:            400 ave         400 max         400 min
Histogram: 1 0 0 0 0 0 0 0 0 0
Nghost:             88 ave          88 max          88 min
Histogram: 1 0 0 0 0 0 0 0 0 0
Neighs:            657 ave         657 max         657 min
Histogram: 1 0 0 0 0 0 0 0 0 0

Total # of neighbors = 657
Ave neighs/atom = 1.6425
Neighbor list builds = 16890
Dangerous builds = 0
Generated 0 of 0 mixed pair_coeff terms from geometric mixing rule
Setting up Verlet run ...
  Unit style    : lj
  Current step  : 50000
  Time step     : 0.01
Per MPI rank memory allocation (min/avg/max) = 3.084 | 3.084 | 3.084 Mbytes
   Step          Temp          E_pair         E_mol          TotEng         Press     
     50000   3.0654219      0.51432933     0              3.5720877      8.9496481    
     50500   3.1342357      0.47866718     0              3.6050673      8.2146193    
     51000   2.9472342      0.53820108     0              3.4780672      9.1063787    
     51500   2.8620325      0.38418371     0              3.2390611      7.173132     
     52000   2.8637195      0.41157145     0              3.2681316      7.2727159    
     52500   2.7819318      0.5320522      0              3.3070292      8.7145147    
     53000   2.7851956      0.41045118     0              3.1886838      7.5287555    
     53500   2.574918       0.50813504     0              3.0766158      8.4970947    
     54000   3.0321936      0.36657793     0              3.3911911      7.2030333    
     54500   2.9477448      0.44414335     0              3.3845188      8.1416244    
     55000   3.0071644      0.42954094     0              3.4291874      8.0287966    
     55500   2.8613277      0.46902964     0              3.323204       8.3066987    
     56000   2.854645       0.60340045     0              3.4509089      9.3263502    
     56500   2.8742407      0.37621012     0              3.2432653      7.5031155    
     57000   2.7604227      0.38468651     0              3.1382081      7.4067529    
     57500   2.5335538      0.44727933     0              2.9744992      7.817543     
     58000   2.6440337      0.44061617     0              3.0780398      7.7195389    
     58500   2.6450644      0.40713517     0              3.0455869      7.362103     
     59000   2.6783863      0.41640901     0              3.0880993      7.6449089    
     59500   2.6363362      0.41728864     0              3.047034       7.3915744    
     60000   2.4206026      0.40438503     0              2.8189362      7.090721     
     60500   2.5244273      0.39344916     0              2.9115654      6.8862134    
     61000   2.5388365      0.42956195     0              2.9620514      7.6154444    
     61500   2.571582       0.55340485     0              3.1185579      8.4623306    
     62000   3.1200778      0.34382569     0              3.4561033      7.2447635    
     62500   2.8560204      0.39212668     0              3.241007       7.6013618    
     63000   2.5883571      0.49442684     0              3.076313       8.061814     
     63500   2.4483009      0.60026317     0              3.0424433      9.489215     
     64000   2.7517364      0.41462809     0              3.1594851      7.4354598    
     64500   3.0031032      0.41500003     0              3.4105955      7.9926389    
     65000   2.6643527      0.40195676     0              3.0596486      7.4097222    
     65500   2.7647812      0.29633181     0              3.054201       6.2073658    
     66000   2.7201111      0.49752864     0              3.2108395      8.3492613    
     66500   2.7618461      0.39351588     0              3.1484574      7.4936556    
     67000   2.6587098      0.29365111     0              2.9457141      6.1683754    
     67500   2.5530384      0.30856221     0              2.855218       6.1826222    
     68000   2.476104       0.35402975     0              2.8239434      6.9452602    
     68500   2.4348719      0.32728514     0              2.7560698      6.4521815    
     69000   2.4600229      0.31571272     0              2.7695855      6.5069855    
     69500   2.3516486      0.36549452     0              2.711264       6.8317532    
     70000   2.2153587      0.382683       0              2.5925033      6.9743433    
     70500   2.3528203      0.30081291     0              2.6477512      6.0597639    
     71000   2.2317008      0.33873383     0              2.5648553      6.7101145    
     71500   2.3091556      0.30632856     0              2.6097113      6.1771901    
     72000   2.3207446      0.30248898     0              2.6174317      6.0969872    
     72500   2.1529139      0.40638225     0              2.5539138      7.1372849    
     73000   2.1477002      0.36185358     0              2.5041845      6.2460693    
     73500   2.2974665      0.2807547      0              2.5724775      6.0601911    
     74000   2.4157458      0.29073086     0              2.7004373      6.0827074    
     74500   2.425854       0.32361377     0              2.7434032      6.7043719    
     75000   2.3114264      0.33812894     0              2.6437768      6.6279887    
     75500   2.2813386      0.3339476      0              2.6095829      6.3990984    
     76000   2.4012925      0.33992291     0              2.7352122      6.5648934    
     76500   2.2993821      0.3364407      0              2.6300743      6.4702694    
     77000   2.2900691      0.30260364     0              2.5869476      6.1188237    
     77500   2.164033       0.34860298     0              2.5072259      6.6309776    
     78000   2.1691405      0.30194968     0              2.4656673      5.9732235    
     78500   2.0501903      0.27269487     0              2.3177597      5.5805302    
     79000   2.0542006      0.35809354     0              2.4071586      6.4063429    
     79500   2.1138271      0.21935592     0              2.3278984      4.8796381    
     80000   2.0799366      0.19758438     0              2.2723212      4.8963385    
     80500   2.0054412      0.30654189     0              2.3069695      5.92998      
     81000   2.1684045      0.34105958     0              2.5040431      6.3500811    
     81500   2.2258979      0.26824819     0              2.4885814      5.6347432    
     82000   2.1680114      0.25603502     0              2.4186264      5.5207911    
     82500   2.0917546      0.30904361     0              2.3955688      5.9255454    
     83000   2.1005054      0.27498571     0              2.3702399      5.6597321    
     83500   1.9614789      0.25688502     0              2.2134603      5.3401817    
     84000   2.0038464      0.27417458     0              2.2730113      5.545141     
     84500   1.9954456      0.23807822     0              2.2285352      5.0021976    
     85000   1.7784675      0.29234975     0              2.0663711      5.7055429    
     85500   1.8087094      0.23451104     0              2.0386986      4.9151103    
     86000   1.9897323      0.24837333     0              2.2331313      5.2575231    
     86500   2.0099869      0.25560034     0              2.2605622      5.5357247    
     87000   2.055877       0.31909874     0              2.369836       6.1634909    
     87500   2.1626932      0.27472087     0              2.4320074      5.674312     
     88000   1.9440282      0.27585454     0              2.2150226      5.7486177    
     88500   1.9272028      0.238034       0              2.1604188      4.9729338    
     89000   1.864632       0.26409413     0              2.1240645      5.313944     
     89500   1.8460386      0.25864232     0              2.1000658      5.311555     
     90000   1.8457929      0.25204585     0              2.0932243      5.3278821    
     90500   1.8052528      0.26131594     0              2.0620556      5.3649878    
     91000   1.6833585      0.23563673     0              1.9147868      4.8768959    
     91500   1.7607902      0.24635968     0              2.0027479      5.0956774    
     92000   1.6892476      0.23902839     0              1.9240529      4.8544446    
     92500   1.6617415      0.21562091     0              1.8732081      4.6327118    
     93000   1.7499991      0.2268143      0              1.9724384      4.6353303    
     93500   1.7753636      0.17102896     0              1.9419542      4.3070661    
     94000   1.7598589      0.21955331     0              1.9750126      4.6776701    
     94500   1.6780191      0.26777757     0              1.9416016      5.2203879    
     95000   1.7257268      0.21982307     0              1.9412355      4.8179257    
     95500   1.8875367      0.24989233     0              2.1327102      5.4341608    
     96000   1.7612498      0.26783445     0              2.0246812      5.1822007    
     96500   1.7619192      0.21911079     0              1.9766252      4.74742      
     97000   1.6882162      0.20909272     0              1.8930884      4.5916133    
     97500   1.5686986      0.24207591     0              1.8068528      4.8693388    
     98000   1.48102        0.20614151     0              1.6834589      4.4083496    
     98500   1.5339113      0.14808163     0              1.6781582      3.7298105    
     99000   1.5647147      0.18774682     0              1.7485497      4.2139268    
     99500   1.5766051      0.23717263     0              1.8098362      5.0083866    
    100000   1.6957129      0.21224534     0              1.903719       4.4732866    
    100500   1.6581311      0.19675197     0              1.8507378      4.5482875    
    101000   1.5105127      0.17549727     0              1.6822337      4.046951     
    101500   1.5110635      0.22573839     0              1.7330242      4.794713     
    102000   1.5083765      0.17080889     0              1.6754145      4.0122736    
    102500   1.4955909      0.2021302      0              1.6939821      4.3385084    
    103000   1.5379153      0.19087064     0              1.7249411      4.1906108    
    103500   1.3816479      0.14915523     0              1.527349       3.7410127    
    104000   1.4105995      0.14866742     0              1.5557404      3.7951234    
    104500   1.3090736      0.20319882     0              1.5089997      4.364132     
    105000   1.3798745      0.15438876     0              1.5308136      3.7378618    
    105500   1.3278274      0.18250603     0              1.5070139      4.1941187    
    106000   1.3814366      0.15226993     0              1.5302529      3.7551546    
    106500   1.310167       0.14909416     0              1.4559858      3.666909     
    107000   1.321255       0.16576913     0              1.483721       3.8744026    
    107500   1.320182       0.11506893     0              1.4319505      3.240912     
    108000   1.2024026      0.17479945     0              1.3741961      3.9364127    
    108500   1.2152755      0.12894643     0              1.3411838      3.0275975    
    109000   1.318155       0.12709434     0              1.441954       3.3237427    
    109500   1.2903505      0.19746651     0              1.4845911      4.3353695    
    110000   1.2882154      0.1482925      0              1.4332874      3.6243751    
    110500   1.3089707      0.161805       0              1.4675033      3.7757868    
    111000   1.4169156      0.15149202     0              1.5648653      3.8368715    
    111500   1.3284827      0.15750154     0              1.4826631      3.8183955    
    112000   1.24196        0.13814374     0              1.3769989      3.2949315    
    112500   1.2210986      0.11518792     0              1.3332338      3.1849961    
    113000   1.1436515      0.12393595     0              1.2647283      3.3408499    
    113500   1.0564569      0.18202034     0              1.2358361      3.8406952    
    114000   1.0785104      0.1528362      0              1.2286503      3.5315004    
    114500   1.0197142      0.14810281     0              1.1652677      3.5910106    
    115000   1.1017973      0.139241       0              1.2382838      3.1944062    
    115500   1.0883908      0.14392724     0              1.2295971      3.2504473    
    116000   1.1042025      0.15903514     0              1.2604771      3.6298463    
    116500   1.0802681      0.11069999     0              1.1882674      3.0333775    
    117000   1.0346081      0.12457251     0              1.1565941      3.1749826    
    117500   1.0424548      0.11213257     0              1.1519812      2.8692251    
    118000   0.97533512     0.11612031     0              1.0890171      2.9654793    
    118500   0.99260715     0.13583618     0              1.1259618      3.2777184    
    119000   0.92506219     0.14321184     0              1.0659614      3.1556174    
    119500   0.94119765     0.1471215      0              1.0859662      3.2211708    
    120000   0.92282392     0.10488862     0              1.0254055      2.8020299    
    120500   0.88663575     0.10583056     0              0.99024971     2.7429322    
    121000   0.9547065      0.11913211     0              1.0714518      2.8914714    
    121500   0.97516173     0.097087911    0              1.0698117      2.5674197    
    122000   0.94658873     0.11840528     0              1.0626275      2.9548509    
    122500   0.95187003     0.092865698    0              1.0423561      2.6301942    
    123000   0.93397177     0.09324514     0              1.024882       2.6419323    
    123500   0.88078678     0.11567575     0              0.99426056     2.9403879    
    124000   0.81253795     0.077059132    0              0.88756574     2.2843185    
    124500   0.81545978     0.094865971    0              0.9082871      2.5867075    
    125000   0.80372886     0.092288677    0              0.89400821     2.4100726    
    125500   0.74126254     0.093984503    0              0.83339389     2.5657487    
    126000   0.77249995     0.072033999    0              0.8426027      2.2614344    
    126500   0.7495597      0.081443216    0              0.82912902     2.3490213    
    127000   0.76603374     0.088975207    0              0.85309386     2.3952299    
    127500   0.76936313     0.076841421    0              0.84428114     2.2803574    
    128000   0.7592811      0.082016112    0              0.83939901     2.2615629    
    128500   0.75488912     0.065951943    0              0.81895384     2.1596542    
    129000   0.72754608     0.1092499      0              0.83497711     2.7277616    
    129500   0.70026949     0.083049779    0              0.7815686      2.1763614    
    130000   0.73408597     0.056460751    0              0.7887115      1.9541764    
    130500   0.71812558     0.077122095    0              0.79345236     2.171494     
    131000   0.65039314     0.06272576     0              0.71149292     2.0806521    
    131500   0.62542237     0.060274897    0              0.68413371     1.8860813    
    132000   0.60039669     0.060508203    0              0.6594039      1.8385001    
    132500   0.55754307     0.054227883    0              0.6103771      1.7980448    
    133000   0.57337396     0.068149497    0              0.64009003     2.0777037    
    133500   0.56387594     0.046099198    0              0.60856545     1.5726089    
    134000   0.53479987     0.054362283    0              0.58782515     1.6993927    
    134500   0.55318452     0.049002905    0              0.60080446     1.6463343    
    135000   0.55866984     0.034959       0              0.59223217     1.3961561    
    135500   0.53525587     0.049251223    0              0.58316896     1.6633108    
    136000   0.53744586     0.04933571     0              0.58543795     1.5634238    
    136500   0.538485       0.058906126    0              0.59604491     1.7644114    
    137000   0.47005568     0.076925174    0              0.54580572     2.0193402    
    137500   0.45686485     0.043141282    0              0.49886397     1.4372076    
    138000   0.42042902     0.032144607    0              0.45152256     1.1664654    
    138500   0.42749987     0.034426635    0              0.46085776     1.3085838    
    139000   0.41666601     0.032289915    0              0.44791426     1.2768732    
    139500   0.41008656     0.03283391     0              0.44189525     1.273011     
    140000   0.37734029     0.042448279    0              0.41884522     1.3702726    
    140500   0.40605424     0.027792812    0              0.43283192     1.1763329    
    141000   0.34812712     0.040584161    0              0.38784096     1.4221034    
    141500   0.34581057     0.031724787    0              0.37667083     1.1643826    
    142000   0.32985185     0.026146743    0              0.35517396     1.0260554    
    142500   0.31793051     0.020660855    0              0.33779654     0.9391433    
    143000   0.28611607     0.018650814    0              0.30405159     0.80738657   
    143500   0.27026405     0.025325837    0              0.29491423     0.93302075   
    144000   0.27084967     0.022707418    0              0.29287996     0.9495034    
    144500   0.25312634     0.015730137    0              0.26822366     0.78775619   
    145000   0.25826499     0.026390883    0              0.28401021     1.00296      
    145500   0.24017494     0.014203345    0              0.25377784     0.6489878    
    146000   0.23025996     0.016861239    0              0.24654555     0.74127324   
    146500   0.20849691     0.0098342152   0              0.21780989     0.51230457   
    147000   0.19784014     0.012672085    0              0.21001763     0.68293265   
    147500   0.17656282     0.010813478    0              0.18693489     0.54341322   
    148000   0.14615382     0.0076151207   0              0.15340356     0.46366657   
    148500   0.14018466     0.0085600156   0              0.14839422     0.49453881   
    149000   0.12835688     0.0042972676   0              0.13233325     0.30704012   
    149500   0.11235576     0.003970308    0              0.11604518     0.2891275    
    150000   0.10287289     0.0023785805   0              0.10499428     0.20278128   
Loop time of 2.59574 on 1 procs for 100000 steps with 400 atoms

Performance: 33285319.004 tau/day, 38524.675 timesteps/s, 15.410 Matom-step/s
99.2% CPU use with 1 MPI tasks x 1 OpenMP threads

MPI task timing breakdown:
Section |  min time  |  avg time  |  max time  |%varavg| %total
---------------------------------------------------------------
Pair    | 0.64033    | 0.64033    | 0.64033    |   0.0 | 24.67
Neigh   | 1.1208     | 1.1208     | 1.1208     |   0.0 | 43.18
Comm    | 0.13955    | 0.13955    | 0.13955    |   0.0 |  5.38
Output  | 0.0055529  | 0.0055529  | 0.0055529  |   0.0 |  0.21
Modify  | 0.51859    | 0.51859    | 0.51859    |   0.0 | 19.98
Other   |            | 0.1709     |            |       |  6.58

Nlocal:            400 ave         400 max         400 min
Histogram: 1 0 0 0 0 0 0 0 0 0
Nghost:             90 ave          90 max          90 min
Histogram: 1 0 0 0 0 0 0 0 0 0
Neighs:            654 ave         654 max         654 min
Histogram: 1 0 0 0 0 0 0 0 0 0

Total # of neighbors = 654
Ave neighs/atom = 1.635
Neighbor list builds = 24574
Dangerous builds = 0
Total wall time: 0:00:04
LAMMPS (15 Sep 2022)
OMP_NUM_THREADS environment is not set. Defaulting to 1 thread. (src/comm.cpp:98)
  using 1 OpenMP thread(s) per MPI task
Lattice spacing in x,y,z = 1.118034 1.118034 1.118034
Created orthogonal box = (0 0 -0.55901699) to (22.36068 22.36068 0.55901699)
  1 by 1 by 1 MPI processor grid
Created 400 atoms
  using lattice units in orthogonal box = (0 0 -0.55901699) to (22.36068 22.36068 0.55901699)
  create_atoms CPU = 0.000 seconds
Generated 0 of 0 mixed pair_coeff terms from geometric mixing rule
Neighbor list info ...
  update: every = 1 steps, delay = 0 steps, check = yes
  max neighbors/atom: 2000, page size: 100000
  master list distance cutoff = 1.3
  ghost atom cutoff = 1.3
  binsize = 0.65, bins = 35 35 2
  1 neighbor lists, perpetual/occasional/extra = 1 0 0
  (1) pair lj/cut, perpetual
      attributes: half, newton on
      pair build: half/bin/atomonly/newton
      stencil: half/bin/2d
      bin: standard
Setting up Verlet run ...
  Unit style    : lj
  Current step  : 0
  Time step     : 0.01
Per MPI rank memory allocation (min/avg/max) = 3.056 | 3.056 | 3.056 Mbytes
   Step          Temp          E_pair         E_mol          TotEng         Press     
         0   3              0              0              2.9925         2.394        
       500   2.993595       0.51930938     0              3.5054204      10.726965    
      1000   2.7093743      0.69361168     0              3.3962126      12.17999     
      1500   2.9058107      0.60910682     0              3.5076529      11.973437    
      2000   2.8229033      0.78433315     0              3.6001792      13.503199    
      2500   2.8243375      0.65727646     0              3.4745531      11.958842    
      3000   2.9816734      0.6435648      0              3.617784       12.372106    
      3500   3.0962782      0.60164622     0              3.6901837      11.769131    
      4000   2.9799332      0.65693192     0              3.6294153      12.438459    
      4500   2.8573774      0.5697673      0              3.4200013      11.78267     
      5000   3.0267019      0.54451113     0              3.5636463      11.143518    
      5500   2.9185606      0.67386075     0              3.585125       12.123346    
      6000   2.7589899      0.65387453     0              3.405967       12.288618    
      6500   2.8869556      0.69600944     0              3.5757477      12.876948    
      7000   2.784291       0.69212271     0              3.469453       12.606695    
      7500   2.8924817      0.72989434     0              3.6151448      13.132058    
      8000   2.7950098      0.71526244     0              3.5032847      13.106159    
      8500   2.7653955      0.62749424     0              3.3859763      11.705169    
      9000   2.9429319      0.67508741     0              3.610662       12.381772    
      9500   2.9978415      0.58406474     0              3.5744117      11.486672    
     10000   2.9106411      0.56061055     0              3.4639751      11.056753    
     10500   2.7981076      0.66601671     0              3.457129       11.937287    
     11000   2.6834249      0.57090233     0              3.2476186      11.392388    
     11500   3.0114358      0.55688131     0              3.5607885      11.31445     
     12000   2.9223543      0.65511375     0              3.5701622      12.467856    
     12500   2.8705857      0.57358411     0              3.4369933      11.118033    
     13000   2.5901217      0.60451823     0              3.1881647      11.602367    
     13500   2.8846644      0.62747718     0              3.5049299      12.171342    
     14000   2.8371847      0.72577489     0              3.5558666      13.398056    
     14500   2.953569       0.62050869     0              3.5666938      11.992663    
     15000   2.7123032      0.72948931     0              3.4350118      12.654101    
     15500   2.9596955      0.71670804     0              3.6690043      12.604165    
     16000   2.9435693      0.64691018     0              3.5831205      11.992445    
     16500   3.1355898      0.7596212      0              3.8873721      12.861303    
     17000   3.1304549      0.59989513     0              3.7225239      11.933236    
     17500   3.158725       0.64752009     0              3.7983482      12.164676    
     18000   3.1605075      0.59711323     0              3.7497195      11.673121    
     18500   2.9702705      0.71683676     0              3.6796815      12.856159    
     19000   2.9472618      0.62355434     0              3.563448       12.36111     
     19500   2.9441943      0.73706679     0              3.6739006      13.168493    
     20000   3.0296089      0.70462879     0              3.7266637      13.16028     
     20500   3.1021632      0.62564724     0              3.720055       12.494258    
     21000   3.1512193      0.57583521     0              3.7191765      11.814929    
     21500   3.044227       0.77288316     0              3.8094996      13.382258    
     22000   3.3376903      0.70633616     0              4.0356822      12.457638    
     22500   3.0200572      0.81504781     0              3.8275549      14.243866    
     23000   3.1275904      0.71322245     0              3.8329939      12.905116    
     23500   3.1752755      0.58990799     0              3.7572453      11.904274    
     24000   3.1830857      0.69022448     0              3.8653525      12.812173    
     24500   3.5167308      0.5931813      0              4.1011203      11.841329    
     25000   2.949053       0.74893873     0              3.6906191      13.008965    
     25500   2.9864938      0.72586511     0              3.7048927      12.802829    
     26000   3.1027216      0.55269943     0              3.6476642      11.223095    
     26500   3.02155        0.78119882     0              3.795195       13.594341    
     27000   3.0552048      0.62565206     0              3.6732189      11.867653    
     27500   3.0019069      0.86010603     0              3.8545082      14.561403    
     28000   3.0732839      0.75473966     0              3.8203404      13.903807    
     28500   3.1202498      0.73710992     0              3.8495591      13.358455    
     29000   3.3360512      0.6037356      0              3.9314467      11.97358     
     29500   3.2676099      0.75661759     0              4.0160585      13.568298    
     30000   3.1519264      0.72451051     0              3.868557       13.405945    
     30500   3.1017548      0.65927187     0              3.7532723      12.468419    
     31000   2.7779012      0.62107525     0              3.3920317      11.922313    
     31500   2.9829141      0.5060479      0              3.4815047      10.602889    
     32000   2.8666578      0.66979996     0              3.5292911      12.647226    
     32500   3.0463851      0.52158524     0              3.5603544      10.780333    
     33000   2.7951677      0.6427155      0              3.4308953      12.310156    
     33500   2.7198118      0.6585252      0              3.3715374      12.386381    
     34000   2.6871698      0.60239699     0              3.2828488      11.59957     
     34500   2.7911559      0.7736387      0              3.5578167      13.411346    
     35000   3.080266       0.60883683     0              3.6814022      11.922282    
     35500   3.1306793      0.83147641     0              3.954329       14.107047    
     36000   3.2418318      0.79317867     0              4.0269059      13.521093    
     36500   3.3268904      0.52849422     0              3.8470674      11.231929    
     37000   3.189573       0.53177304     0              3.7133722      11.330681    
     37500   3.0833616      0.81063906     0              3.8862923      13.976586    
     38000   3.0234363      0.77448241     0              3.7903601      13.258039    
     38500   3.1163078      0.60830711     0              3.7168242      11.665677    
     39000   3.0928846      0.68450487     0              3.7696573      12.63899     
     39500   3.2286098      0.75872068     0              3.9792589      13.560733    
     40000   3.2600951      0.76615763     0              4.0181025      13.624253    
     40500   2.9491034      0.78621542     0              3.7279461      13.836524    
     41000   3.2454641      0.71764582     0              3.9549963      13.179197    
     41500   3.0314778      0.78774189     0              3.811641       13.655888    
     42000   3.0758423      0.61632539     0              3.6844781      11.606899    
     42500   3.2831863      0.60809482     0              3.8830731      12.45677     
     43000   3.114401       0.65404146     0              3.7606564      12.111181    
     43500   3.0778193      0.64871942     0              3.7188442      12.321312    
     44000   3.1430469      0.75990132     0              3.8950906      13.557221    
     44500   3.3929372      0.70221732     0              4.0866722      13.350428    
     45000   3.210608       0.61468301     0              3.8172645      11.694987    
     45500   3.2495827      0.56084668     0              3.8023054      11.190687    
     46000   3.034711       0.84887348     0              3.8759977      14.285813    
     46500   3.0524433      0.84294965     0              3.8877618      14.5232      
     47000   3.1341267      0.5875139      0              3.7138053      11.901525    
     47500   2.9716335      0.74307414     0              3.7072785      12.998336    
     48000   3.1528759      0.76537485     0              3.9103686      13.265787    
     48500   2.9935876      0.69847652     0              3.6845801      12.781849    
     49000   2.984058       0.81390633     0              3.7905042      13.645835    
     49500   3.1194067      0.7164787      0              3.8280868      12.838277    
     50000   2.9884271      0.73465614     0              3.7156122      13.289589    
Loop time of 1.71472 on 1 procs for 50000 steps with 400 atoms

Performance: 25193546.314 tau/day, 29159.197 timesteps/s, 11.664 Matom-step/s
99.3% CPU use with 1 MPI tasks x 1 OpenMP threads

MPI task timing breakdown:
Section |  min time  |  avg time  |  max time  |%varavg| %total
---------------------------------------------------------------
Pair    | 0.43919    | 0.43919    | 0.43919    |   0.0 | 25.61
Neigh   | 0.82392    | 0.82392    | 0.82392    |   0.0 | 48.05
Comm    | 0.09114    | 0.09114    | 0.09114    |   0.0 |  5.32
Output  | 0.0017996  | 0.0017996  | 0.0017996  |   0.0 |  0.10
Modify  | 0.26068    | 0.26068    | 0.26068    |   0.0 | 15.20
Other   |            | 0.098      |            |       |  5.71

Nlocal:            400 ave         400 max         400 min
Histogram: 1 0 0 0 0 0 0 0 0 0
Nghost:            104 ave         104 max         104 min
Histogram: 1 0 0 0 0 0 0 0 0 0
Neighs:            790 ave         790 max         790 min
Histogram: 1 0 0 0 0 0 0 0 0 0

Total # of neighbors = 790
Ave neighs/atom = 1.975
Neighbor list builds = 16912
Dangerous builds = 0
Generated 0 of 0 mixed pair_coeff terms from geometric mixing rule
Setting up Verlet run ...
  Unit style    : lj
  Current step  : 50000
  Time step     : 0.01
Per MPI rank memory allocation (min/avg/max) = 3.084 | 3.084 | 3.084 Mbytes
   Step          Temp          E_pair         E_mol          TotEng         Press     
     50000   2.9884271      0.73465614     0              3.7156122      13.289589    
     50500   3.1197252      0.72293326     0              3.8348591      13.115364    
     51000   3.1336185      0.90239885     0              4.0281833      14.72246     
     51500   3.1364498      0.81130193     0              3.9399106      13.728843    
     52000   3.2555595      0.54572575     0              3.7931464      11.1991      
     52500   2.9086378      0.66723064     0              3.5685969      12.390887    
     53000   2.8728786      0.58002393     0              3.4457203      11.573026    
     53500   2.7781741      0.58002654     0              3.3512552      11.103781    
     54000   2.7844407      0.55373571     0              3.3312153      11.052964    
     54500   2.6272888      0.54866834     0              3.1693889      10.760885    
     55000   2.7276228      0.64176729     0              3.362571       11.710843    
     55500   2.7750895      0.60705809     0              3.3752098      11.688225    
     56000   2.6540917      0.72828843     0              3.3757449      13.069599    
     56500   2.7888289      0.54624585     0              3.3281026      11.088985    
     57000   2.6692         0.55023763     0              3.2127646      11.218579    
     57500   2.7575374      0.60966067     0              3.3603042      11.372818    
     58000   2.7215226      0.54468082     0              3.2593996      10.895239    
     58500   2.6526778      0.57041971     0              3.2164659      10.755819    
     59000   2.518277       0.56751426     0              3.0794956      11.196528    
     59500   2.5758805      0.60696652     0              3.1764073      11.42703     
     60000   2.6862752      0.66688024     0              3.3464397      12.170295    
     60500   2.7682229      0.59913615     0              3.3604385      11.486452    
     61000   2.6887305      0.65025128     0              3.33226        11.951126    
     61500   2.5718189      0.59616765     0              3.161557       11.353002    
     62000   2.7658543      0.59281455     0              3.3517543      11.634078    
     62500   2.843267       0.54125368     0              3.3774125      10.828349    
     63000   2.7353012      0.52559013     0              3.254053       10.562151    
     63500   2.6027326      0.74830595     0              3.3445317      13.312376    
     64000   2.8641144      0.73125147     0              3.5882056      12.93816     
     64500   2.7850187      0.55920539     0              3.3372615      11.267155    
     65000   2.6900755      0.59147531     0              3.2748257      11.281425    
     65500   2.5884847      0.6409055      0              3.222919       12.42076     
     66000   2.4849981      0.57481211     0              3.0535977      11.224648    
     66500   2.5193923      0.5618476      0              3.0749415      10.943945    
     67000   2.4812174      0.57127218     0              3.0462865      11.118914    
     67500   2.4832544      0.54232951     0              3.0193758      10.808054    
     68000   2.3449299      0.44383665     0              2.7829043      9.3112487    
     68500   2.1477029      0.66912339     0              2.8114571      11.57903     
     69000   2.4021103      0.43237723     0              2.8284822      9.2414218    
     69500   2.4496516      0.43472104     0              2.8782485      9.3120063    
     70000   2.4648519      0.5325138      0              2.9912036      10.746595    
     70500   2.6064559      0.50854172     0              3.1084815      10.203197    
     71000   2.4648723      0.57253488     0              3.031245       11.206834    
     71500   2.3639199      0.55692715     0              2.9149373      10.676656    
     72000   2.4852298      0.56146163     0              3.0404784      10.832372    
     72500   2.4466417      0.45997345     0              2.9004986      9.5338893    
     73000   2.4433715      0.49645903     0              2.9337221      10.307889    
     73500   2.3575026      0.42546248     0              2.7770713      9.0367142    
     74000   2.2921787      0.48819384     0              2.7746421      9.5677693    
     74500   2.2936888      0.58847847     0              2.876433       11.146401    
     75000   2.3899834      0.48803916     0              2.8720476      9.9924285    
     75500   2.3615179      0.41387726     0              2.7694914      8.8035504    
     76000   2.340671       0.44421551     0              2.7790348      9.1958994    
     76500   2.5018923      0.56656905     0              3.0622066      10.607564    
     77000   2.2507207      0.59305997     0              2.8381538      11.249837    
     77500   2.3847042      0.39559295     0              2.7743354      9.1565314    
     78000   2.259883       0.43759621     0              2.6918295      9.3283315    
     78500   2.3272393      0.45566113     0              2.7770824      9.5613038    
     79000   2.2353397      0.42157431     0              2.6513257      9.0655774    
     79500   2.1345831      0.52311839     0              2.652365       9.6307531    
     80000   2.2612077      0.47500562     0              2.7305603      9.7956043    
     80500   2.1522902      0.43622678     0              2.5831362      9.1707263    
     81000   2.1265136      0.57264564     0              2.6938429      10.542531    
     81500   2.1108892      0.45413174     0              2.5597437      9.0419616    
     82000   2.1478443      0.51092121     0              2.6533959      10.028953    
     82500   2.123312       0.42763075     0              2.5456344      9.0972072    
     83000   2.0884059      0.41251388     0              2.4956988      8.8151369    
     83500   2.1589329      0.47133163     0              2.6248672      9.4025153    
     84000   2.0255269      0.40874475     0              2.4292078      8.4549001    
     84500   1.9954448      0.40178857     0              2.3922447      8.6464872    
     85000   2.0038186      0.39098843     0              2.3897975      8.5530648    
     85500   1.9319581      0.4478574      0              2.3749856      9.0676707    
     86000   2.036292       0.32524554     0              2.3564468      7.3757261    
     86500   1.8641751      0.36672696     0              2.2262416      8.0482893    
     87000   1.804974       0.37929746     0              2.179759       7.9156536    
     87500   1.7957441      0.4243631      0              2.2156178      8.5450044    
     88000   1.8911078      0.36755418     0              2.2539342      7.7320791    
     88500   1.8021296      0.32485004     0              2.1224743      7.7145946    
     89000   1.9137242      0.33370234     0              2.2426423      7.7373019    
     89500   1.9686445      0.35141766     0              2.3151405      7.8181116    
     90000   1.802905       0.42800902     0              2.2264068      8.6647881    
     90500   1.879394       0.39003153     0              2.264727       8.3882183    
     91000   1.7950907      0.49127407     0              2.2818771      9.3947068    
     91500   1.8288621      0.3507572      0              2.1750472      7.8986738    
     92000   1.807991       0.37436896     0              2.17784        8.2649949    
     92500   1.9000461      0.38379074     0              2.2790868      8.4208221    
     93000   1.8203876      0.38519129     0              2.2010279      8.2142556    
     93500   1.8268237      0.30789915     0              2.1301558      7.1937799    
     94000   1.7873005      0.37792303     0              2.1607552      8.0858346    
     94500   1.5914909      0.36827861     0              1.9557908      7.503189     
     95000   1.6491045      0.28172577     0              1.9267075      6.7589444    
     95500   1.6266103      0.31840234     0              1.9409461      6.8437689    
     96000   1.611016       0.33705968     0              1.9440482      7.4757147    
     96500   1.5952231      0.25173058     0              1.8429657      6.2314952    
     97000   1.6629242      0.2686493      0              1.9274162      6.3748393    
     97500   1.499172       0.39077775     0              1.8862018      8.2092457    
     98000   1.4832918      0.32758341     0              1.807167       7.3316003    
     98500   1.5549409      0.34796835     0              1.8990219      7.4218253    
     99000   1.6331954      0.33755168     0              1.9666641      7.3704196    
     99500   1.6197073      0.24929735     0              1.8649554      6.4831065    
    100000   1.6250354      0.34060987     0              1.9615826      7.6400581    
    100500   1.609283       0.25734468     0              1.8626045      6.3245454    
    101000   1.6180187      0.27194145     0              1.8859151      6.5742564    
    101500   1.6615199      0.29201505     0              1.9493811      6.998402     
    102000   1.6391094      0.30673835     0              1.94175        7.0904275    
    102500   1.4749016      0.31010109     0              1.7813154      7.3581474    
    103000   1.4954137      0.24248982     0              1.7341649      5.9737162    
    103500   1.4596114      0.27665074     0              1.7326131      6.5887933    
    104000   1.3914058      0.32619456     0              1.7141219      6.8152859    
    104500   1.455108       0.27024796     0              1.7217182      6.3539658    
    105000   1.4398639      0.29744101     0              1.7337053      6.6607684    
    105500   1.4697329      0.28384896     0              1.7499075      6.7194736    
    106000   1.3434788      0.25265868     0              1.5927788      5.8875044    
    106500   1.3474979      0.26047895     0              1.6046081      6.3359014    
    107000   1.3475625      0.23032795     0              1.5745216      5.6442693    
    107500   1.3086755      0.25599217     0              1.561396       6.0289306    
    108000   1.2803335      0.24423793     0              1.5213706      5.8099349    
    108500   1.1968653      0.29881604     0              1.4926892      6.477729     
    109000   1.2207098      0.19931224     0              1.4169703      5.1110159    
    109500   1.1869077      0.23347749     0              1.417418       5.8001743    
    110000   1.2195435      0.19695775     0              1.4134524      5.1661853    
    110500   1.2150751      0.21858212     0              1.4306195      5.544812     
    111000   1.1760365      0.19276406     0              1.3658605      5.2612207    
    111500   1.1251844      0.22886871     0              1.3512401      5.6281473    
    112000   1.1121432      0.19199107     0              1.3013539      4.9034885    
    112500   1.1652553      0.20483328     0              1.3671755      5.379798     
    113000   1.1765785      0.19695307     0              1.3705902      5.2123132    
    113500   1.1538764      0.18555754     0              1.3365493      5.1032617    
    114000   1.0329424      0.15275118     0              1.1831112      4.4665787    
    114500   1.064088       0.19630716     0              1.2577349      5.0498179    
    115000   1.1132411      0.19231838     0              1.3027764      5.1655426    
    115500   1.0599748      0.24605011     0              1.3033749      5.643527     
    116000   1.0371864      0.19648396     0              1.2310774      5.0118126    
    116500   1.065249       0.1631998      0              1.2257857      4.5514696    
    117000   0.94916842     0.16555066     0              1.1123462      4.4679116    
    117500   0.9265185      0.2113831      0              1.1355853      5.0421797    
    118000   1.0231668      0.15049012     0              1.171099       4.2184342    
    118500   0.98347666     0.16313656     0              1.1441545      4.71357      
    119000   1.0157507      0.14078182     0              1.1539931      4.2283758    
    119500   0.95460875     0.17183575     0              1.124058       4.4508049    
    120000   0.94465705     0.13198921     0              1.0742846      3.9833708    
    120500   0.98382727     0.21592403     0              1.1972917      5.3868835    
    121000   0.92247568     0.16397193     0              1.0841414      4.5585274    
    121500   0.90331266     0.18036246     0              1.0814168      4.7935072    
    122000   0.88967514     0.1820793      0              1.0695303      4.9076392    
    122500   0.92397162     0.13183861     0              1.0535003      3.9143976    
    123000   0.88741075     0.1599301      0              1.0451223      4.3801312    
    123500   0.87129437     0.16809553     0              1.0372117      4.5187922    
    124000   0.8659837      0.15968002     0              1.0234988      4.6098604    
    124500   0.82919431     0.18082767     0              1.007949       4.7172054    
    125000   0.85590514     0.13205461     0              0.98581998     3.8518951    
    125500   0.87579446     0.16485174     0              1.0384567      4.3826193    
    126000   0.86448438     0.1249584      0              0.98728157     3.8027134    
    126500   0.84603185     0.14040833     0              0.9843251      4.0272188    
    127000   0.83788436     0.10861526     0              0.94440491     3.4927792    
    127500   0.76500869     0.13350413     0              0.89660029     3.781723     
    128000   0.78240776     0.094297381    0              0.87474912     3.1035183    
    128500   0.79150532     0.09778977     0              0.88731633     3.2246952    
    129000   0.77695807     0.13763835     0              0.91265402     3.922963     
    129500   0.74531377     0.10825351     0              0.851704       3.341212     
    130000   0.72636627     0.10853031     0              0.83308067     3.4658995    
    130500   0.67443526     0.1095313      0              0.78228047     3.39296      
    131000   0.67182428     0.082384603    0              0.75252933     2.9146844    
    131500   0.66188805     0.090816474    0              0.7510498      2.9471539    
    132000   0.62287921     0.094411544    0              0.71573355     2.9544301    
    132500   0.63159932     0.093934742    0              0.72395506     3.0313573    
    133000   0.61015977     0.12613903     0              0.7347734      3.4051972    
    133500   0.63556564     0.091771811    0              0.72574853     3.0055563    
    134000   0.56900325     0.1097368      0              0.67731754     3.257684     
    134500   0.55701427     0.072888649    0              0.62851039     2.5218702    
    135000   0.55595678     0.085959802    0              0.64052669     2.8956398    
    135500   0.56415355     0.094075885    0              0.65681905     3.1052501    
    136000   0.52507189     0.063724849    0              0.58748406     2.2790899    
    136500   0.51521813     0.068667902    0              0.58259798     2.5060929    
    137000   0.49143925     0.07554909     0              0.56575974     2.5537208    
    137500   0.48403611     0.059277408    0              0.54210343     2.2162225    
    138000   0.4319988      0.057342154    0              0.48826096     1.9236764    
    138500   0.41236485     0.043446247    0              0.45478019     1.8586273    
    139000   0.38284827     0.058084185    0              0.43997533     2.0617326    
    139500   0.40464472     0.047132058    0              0.45076517     1.9243312    
    140000   0.38479101     0.037184708    0              0.42101374     1.6315837    
    140500   0.3646604      0.042717843    0              0.40646659     1.8133985    
    141000   0.36086475     0.036983963    0              0.39694655     1.707626     
    141500   0.34716005     0.040760157    0              0.38705231     1.7168297    
    142000   0.35020653     0.048633085    0              0.39796409     1.9828107    
    142500   0.33549975     0.040335546    0              0.37499655     1.7423681    
    143000   0.30589161     0.038952444    0              0.34407932     1.6949926    
    143500   0.27461104     0.04159393     0              0.31551845     1.6368481    
    144000   0.28040144     0.028481532    0              0.30818197     1.3622746    
    144500   0.2549681      0.031411951    0              0.28574263     1.4891508    
    145000   0.24044685     0.036477572    0              0.27632331     1.5308757    
    145500   0.24734584     0.020694414    0              0.26742188     1.0073888    
    146000   0.22187202     0.026629126    0              0.24794647     1.142332     
    146500   0.21246062     0.027464131    0              0.2393936      1.2843085    
    147000   0.18012778     0.019691602    0              0.19936906     1.0651779    
    147500   0.16366675     0.012114615    0              0.1753722      0.77434744   
    148000   0.15758442     0.017341191    0              0.17453165     0.94115726   
    148500   0.15760307     0.0097598404   0              0.1669689      0.68926619   
    149000   0.13274356     0.010355851    0              0.14276756     0.65718677   
    149500   0.12006246     0.0078188882   0              0.12758119     0.5402332    
    150000   0.095445494    0.0062464248   0              0.1014533      0.49499038   
Loop time of 2.80441 on 1 procs for 100000 steps with 400 atoms

Performance: 30808618.326 tau/day, 35658.123 timesteps/s, 14.263 Matom-step/s
99.3% CPU use with 1 MPI tasks x 1 OpenMP threads

MPI task timing breakdown:
Section |  min time  |  avg time  |  max time  |%varavg| %total
---------------------------------------------------------------
Pair    | 0.77388    | 0.77388    | 0.77388    |   0.0 | 27.60
Neigh   | 1.1875     | 1.1875     | 1.1875     |   0.0 | 42.34
Comm    | 0.14569    | 0.14569    | 0.14569    |   0.0 |  5.19
Output  | 0.0054472  | 0.0054472  | 0.0054472  |   0.0 |  0.19
Modify  | 0.52109    | 0.52109    | 0.52109    |   0.0 | 18.58
Other   |            | 0.1708     |            |       |  6.09

Nlocal:            400 ave         400 max         400 min
Histogram: 1 0 0 0 0 0 0 0 0 0
Nghost:             93 ave          93 max          93 min
Histogram: 1 0 0 0 0 0 0 0 0 0
Neighs:            819 ave         819 max         819 min
Histogram: 1 0 0 0 0 0 0 0 0 0

Total # of neighbors = 819
Ave neighs/atom = 2.0475
Neighbor list builds = 24413
Dangerous builds = 0
Total wall time: 0:00:04
LAMMPS (15 Sep 2022)
OMP_NUM_THREADS environment is not set. Defaulting to 1 thread. (src/comm.cpp:98)
  using 1 OpenMP thread(s) per MPI task
Lattice spacing in x,y,z = 1.0540926 1.0540926 1.0540926
Created orthogonal box = (0 0 -0.52704628) to (21.081851 21.081851 0.52704628)
  1 by 1 by 1 MPI processor grid
Created 400 atoms
  using lattice units in orthogonal box = (0 0 -0.52704628) to (21.081851 21.081851 0.52704628)
  create_atoms CPU = 0.000 seconds
Generated 0 of 0 mixed pair_coeff terms from geometric mixing rule
Neighbor list info ...
  update: every = 1 steps, delay = 0 steps, check = yes
  max neighbors/atom: 2000, page size: 100000
  master list distance cutoff = 1.3
  ghost atom cutoff = 1.3
  binsize = 0.65, bins = 33 33 2
  1 neighbor lists, perpetual/occasional/extra = 1 0 0
  (1) pair lj/cut, perpetual
      attributes: half, newton on
      pair build: half/bin/atomonly/newton
      stencil: half/bin/2d
      bin: standard
Setting up Verlet run ...
  Unit style    : lj
  Current step  : 0
  Time step     : 0.01
Per MPI rank memory allocation (min/avg/max) = 3.056 | 3.056 | 3.056 Mbytes
   Step          Temp          E_pair         E_mol          TotEng         Press     
         0   3              0              0              2.9925         2.69325      
       500   3.0507815      1.0132604      0              4.056415       19.159141    
      1000   2.8761344      0.99262886     0              3.861573       19.601465    
      1500   2.9477197      1.0068201      0              3.9471705      19.103846    
      2000   2.9766207      0.97654896     0              3.9457281      19.078949    
      2500   2.8360186      1.1350601      0              3.9639887      20.477638    
      3000   3.0310091      0.91310373     0              3.9365353      17.457107    
      3500   2.9329539      1.1973539      0              4.1229755      20.968733    
      4000   3.0752822      1.0413628      0              4.1089568      19.925932    
      4500   3.2256851      1.0418039      0              4.2594248      20.204228    
      5000   3.263244       1.095433       0              4.3505188      20.766448    
      5500   3.0467527      1.1848203      0              4.2239561      21.965424    
      6000   3.1269807      1.1173074      0              4.2364706      20.575398    
      6500   3.0051821      1.1422768      0              4.139946       20.984172    
      7000   3.2032218      0.9310013      0              4.126215       18.927586    
      7500   3.1759416      1.0033251      0              4.1713269      19.520078    
      8000   3.2277715      1.1564753      0              4.3761774      21.019747    
      8500   3.2646231      1.2119162      0              4.4683777      21.97071     
      9000   3.2187083      1.0206295      0              4.231291       19.812074    
      9500   3.0832222      1.2155646      0              4.2910787      21.900527    
     10000   3.1638254      1.0723027      0              4.2282185      20.778809    
     10500   3.2278548      0.99298981     0              4.212775       19.277052    
     11000   3.1344077      1.0327186      0              4.1592903      19.728059    
     11500   2.8016016      0.98360374     0              3.7782013      18.913934    
     12000   3.0331779      0.82750418     0              3.8530991      17.014762    
     12500   2.9134432      1.1163949      0              4.0225546      20.328853    
     13000   3.0040404      0.96643409     0              3.9629644      18.756863    
     13500   2.7929101      0.96132479     0              3.7472526      18.590027    
     14000   2.8196642      1.0942015      0              3.9068166      20.160069    
     14500   2.983529       1.0506042      0              4.0266743      19.849467    
     15000   3.2794454      0.97489072     0              4.2461376      19.484142    
     15500   3.1779586      1.036321       0              4.2063346      20.204418    
     16000   3.2389938      1.0208492      0              4.2517455      20.443105    
     16500   3.1584885      1.0012311      0              4.1518234      19.586803    
     17000   3.1086307      1.0358453      0              4.1367045      20.096899    
     17500   3.1302482      1.0025603      0              4.1249829      19.391073    
     18000   3.1336153      1.1360209      0              4.2618022      21.211928    
     18500   3.2079373      1.1783296      0              4.3782471      21.421061    
     19000   3.2642024      1.1166691      0              4.372711       20.96438     
     19500   3.3387502      0.92055487     0              4.2509582      18.933647    
     20000   2.9434055      1.2890955      0              4.2251425      22.693598    
     20500   3.1765966      1.1138988      0              4.2825539      20.593949    
     21000   2.9616011      1.0625524      0              4.0167495      19.737128    
     21500   3.0795555      0.98664846     0              4.058505       19.424535    
     22000   3.0009038      0.96247173     0              3.9558733      19.504432    
     22500   3.1222267      0.96971564     0              4.0841368      18.9388      
     23000   3.1958345      0.92723478     0              4.1150797      18.445724    
     23500   2.9804731      1.1122654      0              4.0852873      20.53779     
     24000   3.1642684      1.0091055      0              4.1654633      19.771117    
     24500   3.0817875      1.201688       0              4.2757711      21.607736    
     25000   3.0786745      1.1144634      0              4.1854412      20.734952    
     25500   3.0663729      1.1085618      0              4.1672688      20.816031    
     26000   3.0378538      1.0000125      0              4.0302717      19.404869    
     26500   3.169905       1.0386661      0              4.2006464      20.05456     
     27000   2.9826989      0.90643066     0              3.8816728      18.708698    
     27500   2.9548915      1.0898671      0              4.0373714      20.416405    
     28000   3.1062251      0.92493996     0              4.0233995      18.752235    
     28500   3.0943036      1.0166445      0              4.1032123      19.398394    
     29000   3.106792       1.1281332      0              4.2271582      21.006269    
     29500   2.9290832      1.0599094      0              3.9816699      20.074535    
     30000   2.9541568      0.99466377     0              3.9414352      19.349154    
     30500   2.9992863      0.87544304     0              3.8672311      17.349334    
     31000   2.8767006      0.99372894     0              3.8632378      19.034154    
     31500   2.8852514      0.98032044     0              3.8583587      19.153232    
     32000   3.1036385      0.89213444     0              3.9880138      17.944342    
     32500   2.9519997      0.94466139     0              3.8892811      18.476201    
     33000   2.8849166      1.115577       0              3.9932813      20.078036    
     33500   3.0393124      0.99757597     0              4.0292901      19.319928    
     34000   2.9282506      0.87646407     0              3.797394       18.171489    
     34500   3.1167586      0.7534095      0              3.8623762      16.326988    
     35000   2.7074603      0.97023036     0              3.670922       18.972552    
     35500   2.7876403      1.1037362      0              3.8844074      20.104591    
     36000   2.9500766      0.95499395     0              3.8976953      18.829987    
     36500   2.7272564      1.1449384      0              3.8653767      21.372233    
     37000   2.9533453      0.95307994     0              3.8990419      18.667237    
     37500   3.0240313      0.99270911     0              4.0091804      19.507214    
     38000   3.1758752      1.0253387      0              4.1932742      19.627198    
     38500   3.1950599      0.96090265     0              4.1479749      18.867158    
     39000   3.0754231      1.054514       0              4.1222486      20.395534    
     39500   3.0062674      1.0494515      0              4.0482032      19.900871    
     40000   3.0138701      1.0601131      0              4.0664485      19.995054    
     40500   2.9977761      0.94126759     0              3.9315492      18.10364     
     41000   3.0241153      1.0236237      0              4.0401788      19.284395    
     41500   3.0739575      1.0795999      0              4.1458724      20.065886    
     42000   3.0971353      1.0485691      0              4.1379616      20.222409    
     42500   3.0321999      1.0996666      0              4.1242859      20.272149    
     43000   3.0581899      0.98451901     0              4.0350634      18.809891    
     43500   2.9117536      0.98346506     0              3.8879392      19.089785    
     44000   2.8234651      0.9710143      0              3.7874207      18.717606    
     44500   2.9717622      0.99512017     0              3.9594529      19.240868    
     45000   2.9581595      0.95533999     0              3.9061041      18.967723    
     45500   2.7776161      1.0616464      0              3.8323184      19.816196    
     46000   2.7177145      1.0792227      0              3.7901429      20.004761    
     46500   2.8949744      1.0480545      0              3.9357915      19.528962    
     47000   2.81789        0.91237653     0              3.7232218      18.222303    
     47500   3.110008       0.84869221     0              3.9509252      17.735439    
     48000   2.9232964      0.99889235     0              3.9148805      19.306934    
     48500   3.1043553      0.9190718      0              4.0156662      18.611746    
     49000   3.0251431      1.0500622      0              4.0676424      20.074474    
     49500   3.1846197      1.0270307      0              4.2036888      19.888898    
     50000   2.8413733      1.1020339      0              3.9363038      20.154238    
Loop time of 1.92089 on 1 procs for 50000 steps with 400 atoms

Performance: 22489576.175 tau/day, 26029.602 timesteps/s, 10.412 Matom-step/s
99.2% CPU use with 1 MPI tasks x 1 OpenMP threads

MPI task timing breakdown:
Section |  min time  |  avg time  |  max time  |%varavg| %total
---------------------------------------------------------------
Pair    | 0.59195    | 0.59195    | 0.59195    |   0.0 | 30.82
Neigh   | 0.87621    | 0.87621    | 0.87621    |   0.0 | 45.61
Comm    | 0.092307   | 0.092307   | 0.092307   |   0.0 |  4.81
Output  | 0.0020044  | 0.0020044  | 0.0020044  |   0.0 |  0.10
Modify  | 0.25995    | 0.25995    | 0.25995    |   0.0 | 13.53
Other   |            | 0.09847    |            |       |  5.13

Nlocal:            400 ave         400 max         400 min
Histogram: 1 0 0 0 0 0 0 0 0 0
Nghost:            101 ave         101 max         101 min
Histogram: 1 0 0 0 0 0 0 0 0 0
Neighs:            930 ave         930 max         930 min
Histogram: 1 0 0 0 0 0 0 0 0 0

Total # of neighbors = 930
Ave neighs/atom = 2.325
Neighbor list builds = 16889
Dangerous builds = 0
Generated 0 of 0 mixed pair_coeff terms from geometric mixing rule
Setting up Verlet run ...
  Unit style    : lj
  Current step  : 50000
  Time step     : 0.01
Per MPI rank memory allocation (min/avg/max) = 3.083 | 3.083 | 3.083 Mbytes
   Step          Temp          E_pair         E_mol          TotEng         Press     
     50000   2.8413733      1.1020339      0              3.9363038      20.154238    
     50500   2.942551       0.88804264     0              3.8232373      17.689804    
     51000   2.8525861      0.99361249     0              3.8390671      18.82677     
     51500   2.828695       0.98547825     0              3.8071016      18.923111    
     52000   2.8999005      0.96509172     0              3.8577425      18.192762    
     52500   2.9125119      0.92391448     0              3.8291451      18.125717    
     53000   2.7304557      0.95693777     0              3.6805673      19.127024    
     53500   2.7631442      0.8854564      0              3.6416927      17.558474    
     54000   3.0176056      0.85609931     0              3.8661609      17.520079    
     54500   2.9968986      0.94457482     0              3.9339811      18.818197    
     55000   3.1141096      1.0715497      0              4.1778741      20.296701    
     55500   3.078151       1.0689909      0              4.1394465      20.331151    
     56000   2.9427579      0.94450517     0              3.8799062      19.131034    
     56500   2.8899696      1.0413078      0              3.9240525      19.96265     
     57000   2.7703463      0.90903149     0              3.6724519      18.149474    
     57500   2.6813932      1.0182986      0              3.6929884      19.151578    
     58000   2.7426721      1.0347237      0              3.7705391      19.686936    
     58500   2.5867194      1.1391618      0              3.7194144      21.055153    
     59000   2.7138558      0.94008687     0              3.6471581      18.596506    
     59500   2.503419       0.92877292     0              3.4259334      17.968863    
     60000   2.6285044      0.83442108     0              3.4563542      16.957163    
     60500   2.6198128      0.68904966     0              3.3023129      15.017066    
     61000   2.6804755      0.77392702     0              3.4477013      16.041133    
     61500   2.7069331      0.7379071      0              3.4380729      15.936812    
     62000   2.5403762      0.96000493     0              3.4940302      18.273361    
     62500   2.9281595      1.0716472      0              3.9924863      20.20139     
     63000   2.7332032      0.99489224     0              3.7212625      18.512984    
     63500   2.6537692      0.94774163     0              3.5948764      18.398537    
     64000   2.6486384      0.8810699      0              3.5230867      17.475309    
     64500   2.7080758      0.82385109     0              3.5251567      17.360175    
     65000   2.582921       0.84274699     0              3.4192107      17.270259    
     65500   2.5397527      0.88718445     0              3.4205878      17.647307    
     66000   2.4817245      0.8022338      0              3.277754       16.524932    
     66500   2.5476651      0.85170485     0              3.3930008      17.478373    
     67000   2.5852943      0.79243746     0              3.3712686      16.293971    
     67500   2.3845496      0.90082902     0              3.2794173      17.730775    
     68000   2.4184265      0.74430202     0              3.1566824      15.364199    
     68500   2.384098       0.73242741     0              3.1105652      15.149163    
     69000   2.4889757      0.69702784     0              3.1797811      15.112638    
     69500   2.3509003      0.76986121     0              3.1148843      16.12463     
     70000   2.3362718      0.70198504     0              3.0324162      14.881717    
     70500   2.3897194      0.76834909     0              3.1520942      15.777707    
     71000   2.3054399      0.71783465     0              3.017511       14.894729    
     71500   2.4075458      0.72666119     0              3.1281881      15.574345    
     72000   2.4178691      0.90712659     0              3.3189511      17.815831    
     72500   2.410877       0.72569213     0              3.1305419      15.50667     
     73000   2.3299081      0.77588158     0              3.0999649      16.109379    
     73500   2.17921        0.90011798     0              3.0738799      17.071666    
     74000   2.2623938      0.75978517     0              3.016523       15.71115     
     74500   2.2372394      0.75000103     0              2.9816474      15.128633    
     75000   2.224448       0.62496958     0              2.8438564      13.9728      
     75500   2.2361308      0.70456958     0              2.9351101      15.416601    
     76000   2.283941       0.7026105      0              2.9808417      15.296559    
     76500   2.2485363      0.77011627     0              3.0130312      16.004899    
     77000   2.2284801      0.807405       0              3.0303139      16.260694    
     77500   2.2919602      0.62059606     0              2.9068264      13.692389    
     78000   2.1550937      0.70763952     0              2.8573455      14.978497    
     78500   2.0589137      0.63787246     0              2.6916389      13.81087     
     79000   1.9779656      0.78997584     0              2.7629965      15.938549    
     79500   2.0551115      0.7202312      0              2.7702049      14.729006    
     80000   2.0389305      0.72539693     0              2.7592301      15.179725    
     80500   1.9929889      0.59887934     0              2.5868857      13.3051      
     81000   1.9720408      0.59450582     0              2.5616165      13.264701    
     81500   2.0060537      0.61508547     0              2.616124       13.734271    
     82000   2.0964997      0.64635192     0              2.7376104      14.066939    
     82500   2.1657344      0.65844107     0              2.8187611      14.206299    
     83000   2.1248449      0.59132419     0              2.710857       13.440462    
     83500   1.9928249      0.7224221      0              2.7102649      15.10631     
     84000   2.0688919      0.59040236     0              2.654122       13.221478    
     84500   2.0136668      0.59691361     0              2.6055462      13.237354    
     85000   1.8433208      0.49851077     0              2.3372232      11.733002    
     85500   1.8709729      0.55052        0              2.4168155      12.530774    
     86000   1.9222746      0.55210999     0              2.4695789      12.454315    
     86500   1.9423139      0.53895193     0              2.47641        12.88465     
     87000   1.8850191      0.62117003     0              2.5014766      13.966417    
     87500   1.8709304      0.50617579     0              2.3724288      12.239127    
     88000   1.8870371      0.55732345     0              2.4396429      13.282272    
     88500   1.8512748      0.55943019     0              2.4060768      12.507473    
     89000   1.749271       0.5477532      0              2.2926511      12.475102    
     89500   1.7860847      0.60021017     0              2.3818296      13.248925    
     90000   1.8180417      0.61100816     0              2.4245047      12.966087    
     90500   1.768794       0.63461956     0              2.3989915      13.513397    
     91000   1.9917592      0.68604287     0              2.6728227      14.976682    
     91500   1.7973999      0.68597016     0              2.4788765      14.41631     
     92000   1.8772504      0.53117538     0              2.4037327      11.868009    
     92500   1.8731959      0.60357075     0              2.4720837      12.986117    
     93000   1.9153888      0.52354154     0              2.4341419      12.244027    
[...]
Histogram: 1 0 0 0 0 0 0 0 0 0

Total # of neighbors = 1050
Ave neighs/atom = 2.625
Neighbor list builds = 16855
Dangerous builds = 0
Generated 0 of 0 mixed pair_coeff terms from geometric mixing rule
Setting up Verlet run ...
  Unit style    : lj
  Current step  : 50000
  Time step     : 0.01
Per MPI rank memory allocation (min/avg/max) = 3.083 | 3.083 | 3.083 Mbytes
   Step          Temp          E_pair         E_mol          TotEng         Press     
     50000   3.1444896      1.7294347      0              4.8660631      33.464448    
     50500   3.1891477      1.4132825      0              4.5944573      29.482949    
     51000   3.1592064      1.7483107      0              4.8996191      33.944885    
     51500   3.2704448      1.4131183      0              4.6753869      29.245244    
     52000   3.0371824      1.6707219      0              4.7003114      32.853182    
     52500   2.8757144      1.5748863      0              4.4434114      30.811997    
     53000   2.9341566      1.5800182      0              4.5068395      31.333383    
     53500   2.7915358      1.5429852      0              4.3275421      30.961968    
     54000   3.1250585      1.4747748      0              4.5920207      29.819282    
     54500   3.1140261      1.6035775      0              4.7098185      31.880588    
     55000   2.9836076      1.493928       0              4.4700765      30.057177    
     55500   2.6560775      1.6098542      0              4.2592916      30.78873     
     56000   2.8376919      1.4035388      0              4.2341364      29.21437     
     56500   2.9389387      1.4331463      0              4.3647376      29.09511     
     57000   3.1941994      1.5080739      0              4.6942878      30.35447     
     57500   2.897628       1.4416035      0              4.3319874      29.609446    
     58000   2.8124526      1.4630965      0              4.268518       29.31403     
     58500   2.9143127      1.4274657      0              4.3344926      29.414773    
     59000   2.6868974      1.6187822      0              4.2989624      31.682951    
     59500   2.7242053      1.5577631      0              4.2751579      30.784406    
     60000   2.7119186      1.5736855      0              4.2788243      31.070636    
     60500   2.7564325      1.4314993      0              4.1810406      29.019289    
     61000   2.6317297      1.4056332      0              4.0307836      28.623527    
     61500   2.8271384      1.1061835      0              3.9262541      24.39956     
     62000   2.7441762      1.2519348      0              3.9892506      26.926014    
     62500   2.8351221      1.0261654      0              3.8541997      23.475462    
     63000   2.5704031      1.2026035      0              3.7665806      25.306693    
     63500   2.5281735      1.2263622      0              3.7482152      26.054121    
     64000   2.4165571      1.2985689      0              3.7090845      27.305793    
     64500   2.313215       1.3155037      0              3.6229357      27.811759    
     65000   2.5642347      1.3033464      0              3.8611705      27.494195    
     65500   2.3789447      1.3322376      0              3.705235       27.448657    
     66000   2.5625245      1.1294165      0              3.6855347      24.715768    
     66500   2.5478794      1.1119065      0              3.6534162      25.086524    
     67000   2.5044569      1.261641       0              3.7598368      27.011003    
     67500   2.4093973      1.2821583      0              3.6855321      27.196358    
     68000   2.3941387      1.4439661      0              3.8321195      29.62875     
     68500   2.4344712      1.0994871      0              3.5278722      23.921722    
     69000   2.4361246      1.2818118      0              3.7118462      26.718563    
     69500   2.3170117      1.0798343      0              3.3910534      24.599955    
     70000   2.445039       1.1742188      0              3.6131452      25.149674    
     70500   2.3599878      1.2660267      0              3.6201145      26.528568    
     71000   2.5747763      1.4386806      0              4.00702        29.068952    
     71500   2.4674061      1.0363492      0              3.4975868      23.559284    
     72000   2.1930843      1.2110472      0              3.3986488      25.524963    
     72500   2.4679132      1.2578217      0              3.7195651      26.963428    
     73000   2.4752545      1.3207215      0              3.7897879      27.060454    
     73500   2.2603043      1.1532363      0              3.4078899      25.109085    
     74000   2.4038407      0.88617475     0              3.2840058      21.229966    
     74500   2.3519278      1.0405887      0              3.3866367      23.541792    
     75000   2.4036198      1.1401503      0              3.537761       24.890128    
     75500   2.2888781      1.1439921      0              3.427148       24.877747    
     76000   2.3851183      1.1556055      0              3.534761       25.041976    
     76500   2.2357685      1.3620567      0              3.5922358      27.71047     
     77000   2.3629157      1.1260596      0              3.483068       24.376582    
     77500   2.2925991      1.0911301      0              3.3779978      23.7937      
     78000   2.3247298      1.0485238      0              3.3674417      23.594351    
     78500   2.2136925      1.1560625      0              3.3642207      24.859064    
     79000   2.3724262      1.0883025      0              3.4547976      23.904324    
     79500   2.088339       1.1433343      0              3.2264524      25.193902    
     80000   2.2763473      0.98742581     0              3.2580823      22.273716    
     80500   2.1015666      0.98280903     0              3.0791217      22.155264    
     81000   2.051263       0.94527083     0              2.9914057      20.709835    
     81500   2.0423913      0.92719229     0              2.9644776      21.322518    
     82000   2.0688071      0.93180854     0              2.9954436      21.322919    
     82500   2.047082       0.94413874     0              2.9861031      21.463111    
     83000   1.7711341      1.0150335      0              2.7817397      22.949311    
     83500   1.8725818      0.97547487     0              2.8433752      21.54644     
     84000   1.9737824      0.90672345     0              2.8755714      21.188828    
     84500   1.8358767      1.0486839      0              2.8799709      23.083462    
     85000   2.0121167      0.89918009     0              2.9062665      21.077029    
     85500   1.8553878      0.80742863     0              2.6581779      19.004199    
     86000   2.0187118      0.8561695      0              2.8698346      20.51555     
     86500   2.0189425      0.94555972     0              2.9594548      22.371111    
     87000   1.8662396      0.93892697     0              2.8005009      21.623887    
     87500   1.8619922      0.96446477     0              2.821802       21.901598    
     88000   1.9900527      0.90813417     0              2.8932117      21.180339    
     88500   1.8836831      0.96735242     0              2.8463263      22.208685    
     89000   1.8365336      0.94947569     0              2.781418       21.696786    
     89500   1.9393371      0.88296727     0              2.8174561      20.297289    
     90000   2.0155363      0.88082868     0              2.8913262      20.676827    
     90500   1.9003462      0.88679829     0              2.7823936      20.47435     
     91000   1.8835669      0.79068275     0              2.6695407      18.704913    
     91500   1.7870206      0.81401124     0              2.5965643      19.724833    
     92000   1.7865693      0.73386564     0              2.5159685      18.659509    
     92500   1.7378945      0.75725934     0              2.4908091      18.344914    
     93000   1.7359089      0.75651287     0              2.488082       18.400079    
     93500   1.637008       0.8027218      0              2.4356373      19.367437    
     94000   1.5663222      0.81098307     0              2.3733895      19.4723      
     94500   1.6745471      0.79120116     0              2.4615619      19.19749     
     95000   1.7342761      0.67901294     0              2.4089533      17.34975     
     95500   1.7440789      0.73407605     0              2.4737948      18.482986    
     96000   1.6153911      0.73051564     0              2.3418683      18.331158    
     96500   1.7227391      0.65062116     0              2.3690534      16.575299    
     97000   1.6015693      0.75321564     0              2.350781       18.410427    
     97500   1.6751012      0.7035517      0              2.3744652      17.459498    
     98000   1.5995998      0.7102032      0              2.305804       17.258003    
     98500   1.5892326      0.63509085     0              2.2203504      16.55112     
     99000   1.4270264      0.73981642     0              2.1632752      17.556752    
     99500   1.4487514      0.59791918     0              2.0430487      15.700661    
    100000   1.4633287      0.60319022     0              2.0628606      15.60744     
    100500   1.4668684      0.66142972     0              2.1246309      16.705865    
    101000   1.5277001      0.68987618     0              2.213757       17.897282    
    101500   1.692078       0.55487203     0              2.2427199      15.290824    
    102000   1.5331194      0.60522459     0              2.1345112      15.567261    
    102500   1.4486884      0.69374694     0              2.1388136      17.034575    
    103000   1.4246689      0.62670319     0              2.0478105      16.097967    
    103500   1.4326681      0.69488789     0              2.1239744      17.020584    
    104000   1.4977764      0.54477606     0              2.038808       14.991496    
    104500   1.4677868      0.62298477     0              2.0871021      15.918119    
    105000   1.388149       0.57608551     0              1.9607641      15.637551    
    105500   1.4086562      0.4792368      0              1.8843714      13.236324    
    106000   1.3854808      0.48117579     0              1.8631928      13.753979    
    106500   1.3451935      0.4837497      0              1.8255802      13.619831    
    107000   1.1606753      0.54880572     0              1.7065793      14.503137    
    107500   1.3053659      0.4708332      0              1.7729356      13.057435    
    108000   1.3288475      0.51751845     0              1.8430439      13.883554    
    108500   1.3534852      0.50594777     0              1.8560493      13.497244    
    109000   1.3429358      0.51715343     0              1.8567319      14.062273    
    109500   1.2926785      0.49405178     0              1.7834986      13.541717    
    110000   1.2460241      0.48635821     0              1.7292673      13.031808    
    110500   1.2656662      0.39784278     0              1.6603448      12.123362    
    111000   1.2590098      0.4331186      0              1.6889809      12.312997    
    111500   1.1800151      0.51455102     0              1.6916161      14.030563    
    112000   1.2073596      0.43651749     0              1.6408587      12.746024    
    112500   1.1371509      0.51523422     0              1.6495423      14.228391    
    113000   1.1035037      0.48844582     0              1.5891907      13.647146    
    113500   1.1138525      0.42398714     0              1.535055       12.223343    
    114000   1.0334596      0.44087127     0              1.4717472      12.244553    
    114500   1.1484322      0.41572895     0              1.5612901      12.097333    
    115000   1.1759612      0.38939762     0              1.5624189      11.584665    
    115500   1.1704192      0.4172455      0              1.5847386      12.194661    
    116000   1.2039073      0.43459204     0              1.6354895      12.59645     
    116500   1.0660816      0.4023794      0              1.4657958      11.55012     
    117000   1.0347666      0.41510594     0              1.4472856      11.931901    
    117500   1.0283417      0.40053104     0              1.4263019      11.464621    
    118000   1.0388545      0.38142489     0              1.4176823      11.679227    
    118500   1.0900618      0.36440558     0              1.4517422      10.821981    
    119000   0.99756241     0.38709711     0              1.3821656      11.409617    
    119500   1.0512451      0.35179425     0              1.4004112      10.829974    
    120000   0.95913739     0.34547317     0              1.3022127      10.37264     
    120500   0.95024099     0.36118496     0              1.3090503      10.958673    
    121000   0.89788461     0.39618445     0              1.2918243      11.49544     
    121500   0.92642081     0.35188809     0              1.2759928      10.985664    
    122000   0.8899194      0.35534926     0              1.2430439      10.805735    
    122500   0.81818101     0.32813414     0              1.1442697      10.020726    
    123000   0.85432667     0.30480168     0              1.1569925      9.5898651    
    123500   0.77806794     0.29422138     0              1.0703442      9.3767072    
    124000   0.80020135     0.26634049     0              1.0645413      8.9546902    
    124500   0.8346537      0.24871422     0              1.0812813      8.6025648    
    125000   0.79366544     0.31149053     0              1.1031718      9.5351232    
    125500   0.78804458     0.26735116     0              1.0534256      8.9485688    
    126000   0.91124328     0.24678075     0              1.1557459      8.4021573    
    126500   0.7586586      0.33115847     0              1.0879204      10.227078    
    127000   0.76468791     0.25364667     0              1.0164229      8.1873211    
    127500   0.76255782     0.24548531     0              1.0061367      8.4972928    
    128000   0.7201555      0.31204739     0              1.0304025      9.8872313    
    128500   0.83058134     0.26609368     0              1.0945986      9.1574582    
    129000   0.75345824     0.25754303     0              1.0091176      8.7773885    
    129500   0.72475474     0.22947324     0              0.9524161      8.0611537    
    130000   0.63971765     0.24210709     0              0.88022545     8.0923227    
    130500   0.64881553     0.22964752     0              0.87684101     7.941436     
    131000   0.60288952     0.19799562     0              0.79937792     7.0857812    
    131500   0.62798997     0.18573821     0              0.81215821     6.7747135    
    132000   0.58141608     0.17279271     0              0.75275525     6.4875356    
    132500   0.57043129     0.20182895     0              0.77083416     6.9824587    
    133000   0.63410819     0.13639925     0              0.76892217     5.6055062    
    133500   0.56534163     0.17787402     0              0.74180229     6.6714498    
    134000   0.50327133     0.19240247     0              0.69441563     6.918648     
    134500   0.55415068     0.1705452      0              0.72331051     6.7429667    
    135000   0.54232481     0.19939581     0              0.74036481     7.3475015    
    135500   0.59132129     0.16509996     0              0.75494294     6.110044     
    136000   0.53087034     0.1825095      0              0.71205266     6.8223491    
    136500   0.49563074     0.1835888      0              0.67798046     6.7171665    
    137000   0.48300385     0.143306       0              0.62510234     5.8875401    
    137500   0.49032135     0.12258769     0              0.61168324     5.1703138    
    138000   0.44862406     0.1337154      0              0.5812179      5.5382616    
    138500   0.43538142     0.12395473     0              0.5582477      5.1869894    
    139000   0.41495188     0.13121053     0              0.54512503     5.3827453    
    139500   0.43283589     0.10685771     0              0.53861151     4.7370725    
    140000   0.41722356     0.11875294     0              0.53493344     5.1529285    
    140500   0.42664022     0.10756829     0              0.53314191     4.678835     
    141000   0.37245345     0.094544287    0              0.46606661     4.4086573    
    141500   0.36174012     0.10173231     0              0.46256808     4.408614     
    142000   0.3368425      0.082949372    0              0.41894976     3.8766673    
    142500   0.3129113      0.081247439    0              0.39337646     3.9111688    
    143000   0.31699108     0.065887243    0              0.38208585     3.4746945    
    143500   0.30526084     0.084400413    0              0.3888981      3.895606     
    144000   0.26447937     0.07076936     0              0.33458753     3.5460388    
    144500   0.25774627     0.063204992    0              0.3203069      3.3290469    
    145000   0.25823163     0.058155503    0              0.31574155     3.1588709    
    145500   0.24642642     0.057546438    0              0.30335679     3.1035098    
    146000   0.24361046     0.050961329    0              0.29396276     3.0166384    
    146500   0.21517067     0.046589138    0              0.26122188     2.7468063    
    147000   0.19464359     0.052618403    0              0.24677539     2.9605211    
    147500   0.17816741     0.045217135    0              0.22293913     2.6541215    
    148000   0.15785511     0.031981535    0              0.18944201     2.1427535    
    148500   0.14314785     0.022976157    0              0.16576614     1.7414946    
    149000   0.12439895     0.022809263    0              0.14689721     1.6560283    
    149500   0.11056665     0.023938288    0              0.13422852     1.7683002    
    150000   0.10600628     0.015591204    0              0.12133246     1.2395324    
Loop time of 3.2859 on 1 procs for 100000 steps with 400 atoms

Performance: 26294196.038 tau/day, 30433.097 timesteps/s, 12.173 Matom-step/s
99.4% CPU use with 1 MPI tasks x 1 OpenMP threads

MPI task timing breakdown:
Section |  min time  |  avg time  |  max time  |%varavg| %total
---------------------------------------------------------------
Pair    | 1.2743     | 1.2743     | 1.2743     |   0.0 | 38.78
Neigh   | 1.1676     | 1.1676     | 1.1676     |   0.0 | 35.53
Comm    | 0.14495    | 0.14495    | 0.14495    |   0.0 |  4.41
Output  | 0.0079267  | 0.0079267  | 0.0079267  |   0.0 |  0.24
Modify  | 0.52032    | 0.52032    | 0.52032    |   0.0 | 15.83
Other   |            | 0.1708     |            |       |  5.20

Nlocal:            400 ave         400 max         400 min
Histogram: 1 0 0 0 0 0 0 0 0 0
Nghost:            109 ave         109 max         109 min
Histogram: 1 0 0 0 0 0 0 0 0 0
Neighs:           1170 ave        1170 max        1170 min
Histogram: 1 0 0 0 0 0 0 0 0 0

Total # of neighbors = 1170
Ave neighs/atom = 2.925
Neighbor list builds = 23997
Dangerous builds = 0
Total wall time: 0:00:05
LAMMPS (15 Sep 2022)
OMP_NUM_THREADS environment is not set. Defaulting to 1 thread. (src/comm.cpp:98)
  using 1 OpenMP thread(s) per MPI task
ERROR: Expected floating point parameter instead of '1.1}' in input script or data file (src/lattice.cpp:85)
Last command: lattice         sq ${density}
--------------------------------------------------------------------------
Primary job  terminated normally, but 1 process returned
a non-zero exit code. Per user-direction, the job has been aborted.
--------------------------------------------------------------------------
--------------------------------------------------------------------------
mpirun detected that one or more processes exited with non-zero status, thus causing
the job to be terminated. The first process to do so was:

  Process name: [[51662,1],0]
  Exit code:    1
--------------------------------------------------------------------------
